
     Program PWSCF v.6.1 (svn rev. 13369) starts on 21Jan2020 at 13:53:48 

     This program is part of the open-source Quantum ESPRESSO suite
     for quantum simulation of materials; please cite
         "P. Giannozzi et al., J. Phys.:Condens. Matter 21 395502 (2009);
          URL http://www.quantum-espresso.org", 
     in publications or presentations arising from this work. More details at
     http://www.quantum-espresso.org/quote

     Parallel version (MPI & OpenMP), running on     176 processor cores
     Number of MPI processes:               176
     Threads/MPI process:                     1
     K-points division:     npool     =       8
     R & G space division:  proc/nbgrp/npool/nimage =      22
     Waiting for input...
     Reading input from standard input
Warning: card &IONS ignored
Warning: card / ignored
Warning: card &CELL ignored
Warning: card / ignored

     Current dimensions of program PWSCF are:
     Max number of different atomic species (ntypx) = 10
     Max number of k-points (npk) =  40000
     Max angular momentum in pseudopotentials (lmaxx) =  3

     Atomic positions and unit cell read from directory:
     ./bto.save/
 

     IMPORTANT: XC functional enforced from input :
     Exchange-correlation      = PBESOL ( 1  4 10  8 0 0)
     Any further DFT definition will be discarded
     Please, verify this is what you really want


     Subspace diagonalization in iterative solution of the eigenvalue problem:
     one sub-group per band group will be used
     custom distributed-memory algorithm (size of sub-group:  4*  4 procs)

 
     Parallelization info
     --------------------
     sticks:   dense  smooth     PW     G-vecs:    dense   smooth      PW
     Min          40      40     12                  935      935     154
     Max          42      42     13                  939      939     157
     Sum         901     901    277                20607    20607    3423
 


     bravais-lattice index     =            0
     lattice parameter (alat)  =       7.5585  a.u.
     unit-cell volume          =     433.7936 (a.u.)^3
     number of atoms/cell      =            5
     number of atomic types    =            3
     number of electrons       =        40.00
     number of Kohn-Sham states=           60
     kinetic-energy cutoff     =      50.0000  Ry
     charge density cutoff     =     200.0000  Ry
     Exchange-correlation      = PBESOL ( 1  4 10  8 0 0)

     celldm(1)=   7.558527  celldm(2)=   0.000000  celldm(3)=   0.000000
     celldm(4)=   0.000000  celldm(5)=   0.000000  celldm(6)=   0.000000

     crystal axes: (cart. coord. in units of alat)
               a(1) = (   1.000000   0.000000   0.000000 )  
               a(2) = (   0.000000   1.000000   0.000000 )  
               a(3) = (   0.000000   0.000000   1.004550 )  

     reciprocal axes: (cart. coord. in units 2 pi/alat)
               b(1) = (  1.000000  0.000000  0.000000 )  
               b(2) = (  0.000000  1.000000  0.000000 )  
               b(3) = (  0.000000  0.000000  0.995470 )  


     PseudoPot. # 1 for Ba read from file:
     ./ba.upf
     MD5 check sum: 569c1dde556b1c81f66e1af894da4ae7
     Pseudo is Norm-conserving, Zval = 10.0
     Generated by new atomic code, or converted to UPF format
     Using radial grid of 1179 points,  3 beta functions with: 
                l(1) =   0
                l(2) =   1
                l(3) =   2

     PseudoPot. # 2 for Ti read from file:
     ./ti.upf
     MD5 check sum: d6257d118c7423cc8567dddc52575db9
     Pseudo is Norm-conserving, Zval = 12.0
     Generated by new atomic code, or converted to UPF format
     Using radial grid of 1156 points,  3 beta functions with: 
                l(1) =   0
                l(2) =   1
                l(3) =   2

     PseudoPot. # 3 for O  read from file:
     ./o.upf
     MD5 check sum: 6afdad5913fe366ac5de9e6b2d735f4a
     Pseudo is Norm-conserving, Zval =  6.0
     Generated by new atomic code, or converted to UPF format
     Using radial grid of 1130 points,  1 beta functions with: 
                l(1) =   1

     atomic species   valence    mass     pseudopotential
        Ba            10.00   137.32700     Ba( 1.00)
        Ti            12.00    47.86700     Ti( 1.00)
        O              6.00    15.99940     O ( 1.00)

      8 Sym. Ops. (no inversion) found


                                    s                        frac. trans.

      isym =  1     identity                                     

 cryst.   s( 1) = (     1          0          0      )
                  (     0          1          0      )
                  (     0          0          1      )

 cart.    s( 1) = (  1.0000000  0.0000000  0.0000000 )
                  (  0.0000000  1.0000000  0.0000000 )
                  (  0.0000000  0.0000000  1.0000000 )


      isym =  2     180 deg rotation - cart. axis [0,0,1]        

 cryst.   s( 2) = (    -1          0          0      )
                  (     0         -1          0      )
                  (     0          0          1      )

 cart.    s( 2) = ( -1.0000000  0.0000000  0.0000000 )
                  (  0.0000000 -1.0000000  0.0000000 )
                  (  0.0000000  0.0000000  1.0000000 )


      isym =  3      90 deg rotation - cart. axis [0,0,-1]       

 cryst.   s( 3) = (     0         -1          0      )
                  (     1          0          0      )
                  (     0          0          1      )

 cart.    s( 3) = (  0.0000000  1.0000000  0.0000000 )
                  ( -1.0000000  0.0000000  0.0000000 )
                  (  0.0000000  0.0000000  1.0000000 )


      isym =  4      90 deg rotation - cart. axis [0,0,1]        

 cryst.   s( 4) = (     0          1          0      )
                  (    -1          0          0      )
                  (     0          0          1      )

 cart.    s( 4) = (  0.0000000 -1.0000000  0.0000000 )
                  (  1.0000000  0.0000000  0.0000000 )
                  (  0.0000000  0.0000000  1.0000000 )


      isym =  5     inv. 180 deg rotation - cart. axis [0,1,0]   

 cryst.   s( 5) = (     1          0          0      )
                  (     0         -1          0      )
                  (     0          0          1      )

 cart.    s( 5) = (  1.0000000  0.0000000  0.0000000 )
                  (  0.0000000 -1.0000000  0.0000000 )
                  (  0.0000000  0.0000000  1.0000000 )


      isym =  6     inv. 180 deg rotation - cart. axis [1,0,0]   

 cryst.   s( 6) = (    -1          0          0      )
                  (     0          1          0      )
                  (     0          0          1      )

 cart.    s( 6) = ( -1.0000000  0.0000000  0.0000000 )
                  (  0.0000000  1.0000000  0.0000000 )
                  (  0.0000000  0.0000000  1.0000000 )


      isym =  7     inv. 180 deg rotation - cart. axis [1,1,0]   

 cryst.   s( 7) = (     0         -1          0      )
                  (    -1          0          0      )
                  (     0          0          1      )

 cart.    s( 7) = (  0.0000000 -1.0000000  0.0000000 )
                  ( -1.0000000  0.0000000  0.0000000 )
                  (  0.0000000  0.0000000  1.0000000 )


      isym =  8     inv. 180 deg rotation - cart. axis [1,-1,0]  

 cryst.   s( 8) = (     0          1          0      )
                  (     1          0          0      )
                  (     0          0          1      )

 cart.    s( 8) = (  0.0000000  1.0000000  0.0000000 )
                  (  1.0000000  0.0000000  0.0000000 )
                  (  0.0000000  0.0000000  1.0000000 )


   Cartesian axes

     site n.     atom                  positions (alat units)
         1           Ba  tau(   1) = (   0.0000000   0.0000000   0.0098802  )
         2           Ti  tau(   2) = (   0.5000000   0.5000000   0.5261743  )
         3           O   tau(   3) = (   0.0000000   0.5000000   0.4979978  )
         4           O   tau(   4) = (   0.5000000   0.0000000   0.4980003  )
         5           O   tau(   5) = (   0.5000000   0.5000000   0.9920560  )

   Crystallographic axes

     site n.     atom                  positions (cryst. coord.)
         1           Ba  tau(   1) = (  0.0000000  0.0000000  0.0098355  )
         2           Ti  tau(   2) = (  0.5000000  0.5000000  0.5237909  )
         3           O   tau(   3) = (  0.0000000  0.5000000  0.4957421  )
         4           O   tau(   4) = (  0.5000000  0.0000000  0.4957446  )
         5           O   tau(   5) = (  0.5000000  0.5000000  0.9875624  )

     number of k points=    75
                       cart. coord. in units 2pi/alat
        k(    1) = (   0.0000000   0.0000000   0.0000000), wk =   0.0039062
        k(    2) = (   0.0000000   0.0000000   0.1244338), wk =   0.0078125
        k(    3) = (   0.0000000   0.0000000   0.2488676), wk =   0.0078125
        k(    4) = (   0.0000000   0.0000000   0.3733014), wk =   0.0078125
        k(    5) = (   0.0000000   0.0000000  -0.4977352), wk =   0.0039062
        k(    6) = (   0.0000000   0.1250000   0.0000000), wk =   0.0156250
        k(    7) = (   0.0000000   0.1250000   0.1244338), wk =   0.0312500
        k(    8) = (   0.0000000   0.1250000   0.2488676), wk =   0.0312500
        k(    9) = (   0.0000000   0.1250000   0.3733014), wk =   0.0312500
        k(   10) = (   0.0000000   0.1250000  -0.4977352), wk =   0.0156250
        k(   11) = (   0.0000000   0.2500000   0.0000000), wk =   0.0156250
        k(   12) = (   0.0000000   0.2500000   0.1244338), wk =   0.0312500
        k(   13) = (   0.0000000   0.2500000   0.2488676), wk =   0.0312500
        k(   14) = (   0.0000000   0.2500000   0.3733014), wk =   0.0312500
        k(   15) = (   0.0000000   0.2500000  -0.4977352), wk =   0.0156250
        k(   16) = (   0.0000000   0.3750000   0.0000000), wk =   0.0156250
        k(   17) = (   0.0000000   0.3750000   0.1244338), wk =   0.0312500
        k(   18) = (   0.0000000   0.3750000   0.2488676), wk =   0.0312500
        k(   19) = (   0.0000000   0.3750000   0.3733014), wk =   0.0312500
        k(   20) = (   0.0000000   0.3750000  -0.4977352), wk =   0.0156250
        k(   21) = (   0.0000000  -0.5000000   0.0000000), wk =   0.0078125
        k(   22) = (   0.0000000  -0.5000000   0.1244338), wk =   0.0156250
        k(   23) = (   0.0000000  -0.5000000   0.2488676), wk =   0.0156250
        k(   24) = (   0.0000000  -0.5000000   0.3733014), wk =   0.0156250
        k(   25) = (   0.0000000  -0.5000000  -0.4977352), wk =   0.0078125
        k(   26) = (   0.1250000   0.1250000   0.0000000), wk =   0.0156250
        k(   27) = (   0.1250000   0.1250000   0.1244338), wk =   0.0312500
        k(   28) = (   0.1250000   0.1250000   0.2488676), wk =   0.0312500
        k(   29) = (   0.1250000   0.1250000   0.3733014), wk =   0.0312500
        k(   30) = (   0.1250000   0.1250000  -0.4977352), wk =   0.0156250
        k(   31) = (   0.1250000   0.2500000   0.0000000), wk =   0.0312500
        k(   32) = (   0.1250000   0.2500000   0.1244338), wk =   0.0625000
        k(   33) = (   0.1250000   0.2500000   0.2488676), wk =   0.0625000
        k(   34) = (   0.1250000   0.2500000   0.3733014), wk =   0.0625000
        k(   35) = (   0.1250000   0.2500000  -0.4977352), wk =   0.0312500
        k(   36) = (   0.1250000   0.3750000   0.0000000), wk =   0.0312500
        k(   37) = (   0.1250000   0.3750000   0.1244338), wk =   0.0625000
        k(   38) = (   0.1250000   0.3750000   0.2488676), wk =   0.0625000
        k(   39) = (   0.1250000   0.3750000   0.3733014), wk =   0.0625000
        k(   40) = (   0.1250000   0.3750000  -0.4977352), wk =   0.0312500
        k(   41) = (   0.1250000  -0.5000000   0.0000000), wk =   0.0156250
        k(   42) = (   0.1250000  -0.5000000   0.1244338), wk =   0.0312500
        k(   43) = (   0.1250000  -0.5000000   0.2488676), wk =   0.0312500
        k(   44) = (   0.1250000  -0.5000000   0.3733014), wk =   0.0312500
        k(   45) = (   0.1250000  -0.5000000  -0.4977352), wk =   0.0156250
        k(   46) = (   0.2500000   0.2500000   0.0000000), wk =   0.0156250
        k(   47) = (   0.2500000   0.2500000   0.1244338), wk =   0.0312500
        k(   48) = (   0.2500000   0.2500000   0.2488676), wk =   0.0312500
        k(   49) = (   0.2500000   0.2500000   0.3733014), wk =   0.0312500
        k(   50) = (   0.2500000   0.2500000  -0.4977352), wk =   0.0156250
        k(   51) = (   0.2500000   0.3750000   0.0000000), wk =   0.0312500
        k(   52) = (   0.2500000   0.3750000   0.1244338), wk =   0.0625000
        k(   53) = (   0.2500000   0.3750000   0.2488676), wk =   0.0625000
        k(   54) = (   0.2500000   0.3750000   0.3733014), wk =   0.0625000
        k(   55) = (   0.2500000   0.3750000  -0.4977352), wk =   0.0312500
        k(   56) = (   0.2500000  -0.5000000   0.0000000), wk =   0.0156250
        k(   57) = (   0.2500000  -0.5000000   0.1244338), wk =   0.0312500
        k(   58) = (   0.2500000  -0.5000000   0.2488676), wk =   0.0312500
        k(   59) = (   0.2500000  -0.5000000   0.3733014), wk =   0.0312500
        k(   60) = (   0.2500000  -0.5000000  -0.4977352), wk =   0.0156250
        k(   61) = (   0.3750000   0.3750000   0.0000000), wk =   0.0156250
        k(   62) = (   0.3750000   0.3750000   0.1244338), wk =   0.0312500
        k(   63) = (   0.3750000   0.3750000   0.2488676), wk =   0.0312500
        k(   64) = (   0.3750000   0.3750000   0.3733014), wk =   0.0312500
        k(   65) = (   0.3750000   0.3750000  -0.4977352), wk =   0.0156250
        k(   66) = (   0.3750000  -0.5000000   0.0000000), wk =   0.0156250
        k(   67) = (   0.3750000  -0.5000000   0.1244338), wk =   0.0312500
        k(   68) = (   0.3750000  -0.5000000   0.2488676), wk =   0.0312500
        k(   69) = (   0.3750000  -0.5000000   0.3733014), wk =   0.0312500
        k(   70) = (   0.3750000  -0.5000000  -0.4977352), wk =   0.0156250
        k(   71) = (  -0.5000000  -0.5000000   0.0000000), wk =   0.0039062
        k(   72) = (  -0.5000000  -0.5000000   0.1244338), wk =   0.0078125
        k(   73) = (  -0.5000000  -0.5000000   0.2488676), wk =   0.0078125
        k(   74) = (  -0.5000000  -0.5000000   0.3733014), wk =   0.0078125
        k(   75) = (  -0.5000000  -0.5000000  -0.4977352), wk =   0.0039062

                       cryst. coord.
        k(    1) = (   0.0000000   0.0000000   0.0000000), wk =   0.0039062
        k(    2) = (   0.0000000   0.0000000   0.1250000), wk =   0.0078125
        k(    3) = (   0.0000000   0.0000000   0.2500000), wk =   0.0078125
        k(    4) = (   0.0000000   0.0000000   0.3750000), wk =   0.0078125
        k(    5) = (   0.0000000   0.0000000  -0.5000000), wk =   0.0039062
        k(    6) = (   0.0000000   0.1250000   0.0000000), wk =   0.0156250
        k(    7) = (   0.0000000   0.1250000   0.1250000), wk =   0.0312500
        k(    8) = (   0.0000000   0.1250000   0.2500000), wk =   0.0312500
        k(    9) = (   0.0000000   0.1250000   0.3750000), wk =   0.0312500
        k(   10) = (   0.0000000   0.1250000  -0.5000000), wk =   0.0156250
        k(   11) = (   0.0000000   0.2500000   0.0000000), wk =   0.0156250
        k(   12) = (   0.0000000   0.2500000   0.1250000), wk =   0.0312500
        k(   13) = (   0.0000000   0.2500000   0.2500000), wk =   0.0312500
        k(   14) = (   0.0000000   0.2500000   0.3750000), wk =   0.0312500
        k(   15) = (   0.0000000   0.2500000  -0.5000000), wk =   0.0156250
        k(   16) = (   0.0000000   0.3750000   0.0000000), wk =   0.0156250
        k(   17) = (   0.0000000   0.3750000   0.1250000), wk =   0.0312500
        k(   18) = (   0.0000000   0.3750000   0.2500000), wk =   0.0312500
        k(   19) = (   0.0000000   0.3750000   0.3750000), wk =   0.0312500
        k(   20) = (   0.0000000   0.3750000  -0.5000000), wk =   0.0156250
        k(   21) = (   0.0000000  -0.5000000   0.0000000), wk =   0.0078125
        k(   22) = (   0.0000000  -0.5000000   0.1250000), wk =   0.0156250
        k(   23) = (   0.0000000  -0.5000000   0.2500000), wk =   0.0156250
        k(   24) = (   0.0000000  -0.5000000   0.3750000), wk =   0.0156250
        k(   25) = (   0.0000000  -0.5000000  -0.5000000), wk =   0.0078125
        k(   26) = (   0.1250000   0.1250000   0.0000000), wk =   0.0156250
        k(   27) = (   0.1250000   0.1250000   0.1250000), wk =   0.0312500
        k(   28) = (   0.1250000   0.1250000   0.2500000), wk =   0.0312500
        k(   29) = (   0.1250000   0.1250000   0.3750000), wk =   0.0312500
        k(   30) = (   0.1250000   0.1250000  -0.5000000), wk =   0.0156250
        k(   31) = (   0.1250000   0.2500000   0.0000000), wk =   0.0312500
        k(   32) = (   0.1250000   0.2500000   0.1250000), wk =   0.0625000
        k(   33) = (   0.1250000   0.2500000   0.2500000), wk =   0.0625000
        k(   34) = (   0.1250000   0.2500000   0.3750000), wk =   0.0625000
        k(   35) = (   0.1250000   0.2500000  -0.5000000), wk =   0.0312500
        k(   36) = (   0.1250000   0.3750000   0.0000000), wk =   0.0312500
        k(   37) = (   0.1250000   0.3750000   0.1250000), wk =   0.0625000
        k(   38) = (   0.1250000   0.3750000   0.2500000), wk =   0.0625000
        k(   39) = (   0.1250000   0.3750000   0.3750000), wk =   0.0625000
        k(   40) = (   0.1250000   0.3750000  -0.5000000), wk =   0.0312500
        k(   41) = (   0.1250000  -0.5000000   0.0000000), wk =   0.0156250
        k(   42) = (   0.1250000  -0.5000000   0.1250000), wk =   0.0312500
        k(   43) = (   0.1250000  -0.5000000   0.2500000), wk =   0.0312500
        k(   44) = (   0.1250000  -0.5000000   0.3750000), wk =   0.0312500
        k(   45) = (   0.1250000  -0.5000000  -0.5000000), wk =   0.0156250
        k(   46) = (   0.2500000   0.2500000   0.0000000), wk =   0.0156250
        k(   47) = (   0.2500000   0.2500000   0.1250000), wk =   0.0312500
        k(   48) = (   0.2500000   0.2500000   0.2500000), wk =   0.0312500
        k(   49) = (   0.2500000   0.2500000   0.3750000), wk =   0.0312500
        k(   50) = (   0.2500000   0.2500000  -0.5000000), wk =   0.0156250
        k(   51) = (   0.2500000   0.3750000   0.0000000), wk =   0.0312500
        k(   52) = (   0.2500000   0.3750000   0.1250000), wk =   0.0625000
        k(   53) = (   0.2500000   0.3750000   0.2500000), wk =   0.0625000
        k(   54) = (   0.2500000   0.3750000   0.3750000), wk =   0.0625000
        k(   55) = (   0.2500000   0.3750000  -0.5000000), wk =   0.0312500
        k(   56) = (   0.2500000  -0.5000000   0.0000000), wk =   0.0156250
        k(   57) = (   0.2500000  -0.5000000   0.1250000), wk =   0.0312500
        k(   58) = (   0.2500000  -0.5000000   0.2500000), wk =   0.0312500
        k(   59) = (   0.2500000  -0.5000000   0.3750000), wk =   0.0312500
        k(   60) = (   0.2500000  -0.5000000  -0.5000000), wk =   0.0156250
        k(   61) = (   0.3750000   0.3750000   0.0000000), wk =   0.0156250
        k(   62) = (   0.3750000   0.3750000   0.1250000), wk =   0.0312500
        k(   63) = (   0.3750000   0.3750000   0.2500000), wk =   0.0312500
        k(   64) = (   0.3750000   0.3750000   0.3750000), wk =   0.0312500
        k(   65) = (   0.3750000   0.3750000  -0.5000000), wk =   0.0156250
        k(   66) = (   0.3750000  -0.5000000   0.0000000), wk =   0.0156250
        k(   67) = (   0.3750000  -0.5000000   0.1250000), wk =   0.0312500
        k(   68) = (   0.3750000  -0.5000000   0.2500000), wk =   0.0312500
        k(   69) = (   0.3750000  -0.5000000   0.3750000), wk =   0.0312500
        k(   70) = (   0.3750000  -0.5000000  -0.5000000), wk =   0.0156250
        k(   71) = (  -0.5000000  -0.5000000   0.0000000), wk =   0.0039062
        k(   72) = (  -0.5000000  -0.5000000   0.1250000), wk =   0.0078125
        k(   73) = (  -0.5000000  -0.5000000   0.2500000), wk =   0.0078125
        k(   74) = (  -0.5000000  -0.5000000   0.3750000), wk =   0.0078125
        k(   75) = (  -0.5000000  -0.5000000  -0.5000000), wk =   0.0039062

     Dense  grid:    20607 G-vectors     FFT dimensions: (  36,  36,  36)

     Estimated max dynamical RAM per process >       1.04MB

     Estimated total allocated dynamical RAM >     182.56MB

     The potential is recalculated from file :
     ./bto.save/charge-density.dat

     Starting wfc are   30 randomized atomic wfcs +   30 random wfc

     Band Structure Calculation
     Davidson diagonalization with overlap

     Computing kpt #:     1
     total cpu time spent up to now is        1.2 secs

     Computing kpt #:     2
     total cpu time spent up to now is        1.7 secs

     Computing kpt #:     3
     total cpu time spent up to now is        2.1 secs

     Computing kpt #:     4
     total cpu time spent up to now is        2.6 secs

     Computing kpt #:     5
     total cpu time spent up to now is        3.0 secs

     Computing kpt #:     6
     total cpu time spent up to now is        3.5 secs

     Computing kpt #:     7
     total cpu time spent up to now is        3.9 secs

     Computing kpt #:     8
     total cpu time spent up to now is        4.3 secs

     Computing kpt #:     9
     total cpu time spent up to now is        4.8 secs

     Computing kpt #:    10
     total cpu time spent up to now is        5.2 secs

     ethr =  2.50E-12,  avg # of iterations = 16.0

     total cpu time spent up to now is        5.2 secs

     End of band structure calculation

          k = 0.0000 0.0000 0.0000 (  2553 PWs)   bands (ev):

   -44.8590 -22.0676 -22.0161 -22.0161 -14.4280  -6.3854  -5.7424  -5.6510
     0.2781   0.2781   0.2858   8.0161   8.0346   8.0346   8.9742   8.9742
     9.1412   9.9379   9.9768   9.9768  11.8596  12.1501  12.1501  13.9791
    14.1518  15.1278  15.2032  17.4461  18.6947  18.6947  18.7009  25.2488
    27.1363  27.1363  27.3418  29.6037  30.5153  30.5153  30.7356  31.1353
    31.4164  31.4164  33.1439  33.3114  37.0575  37.2804  37.2804  39.6941
    39.7320  39.7320  40.8458  40.8909  41.7712  41.7712  41.8537  42.5153
    45.4180  45.4276  45.4277  46.7205

     occupation numbers 
     1.0000   1.0000   1.0000   1.0000   1.0000   1.0000   1.0000   1.0000
     1.0000   1.0000   1.0000   1.0000   1.0000   1.0000   1.0000   1.0000
     1.0000   1.0000   1.0000   1.0000   0.0000   0.0000   0.0000   0.0000
     0.0000   0.0000   0.0000   0.0000   0.0000   0.0000   0.0000   0.0000
     0.0000   0.0000   0.0000   0.0000   0.0000   0.0000   0.0000   0.0000
     0.0000   0.0000   0.0000   0.0000   0.0000   0.0000   0.0000   0.0000
     0.0000   0.0000   0.0000   0.0000   0.0000   0.0000   0.0000   0.0000
     0.0000   0.0000   0.0000   0.0000

          k = 0.0000 0.0000 0.1244 (  2573 PWs)   bands (ev):

   -44.8589 -22.0757 -22.0158 -22.0158 -14.4110  -6.3843  -5.7455  -5.6456
     0.3007   0.3007   0.3536   7.7392   7.9875   7.9875   8.8017   8.8017
     8.9967   9.6049   9.9198   9.9198  11.8801  12.4015  12.4016  13.9781
    14.5439  15.4262  15.5047  17.8239  18.6572  18.8755  18.8755  25.0847
    27.1708  27.1708  27.5517  28.8056  30.2214  30.4020  30.4020  31.2679
    31.3493  31.3493  32.3170  33.4017  37.1217  37.1217  38.0482  38.9342
    39.6515  39.6515  41.1187  41.1957  41.3602  41.3602  41.8064  43.7390
    44.9130  44.9130  45.0197  46.1694

     occupation numbers 
     1.0000   1.0000   1.0000   1.0000   1.0000   1.0000   1.0000   1.0000
     1.0000   1.0000   1.0000   1.0000   1.0000   1.0000   1.0000   1.0000
     1.0000   1.0000   1.0000   1.0000   0.0000   0.0000   0.0000   0.0000
     0.0000   0.0000   0.0000   0.0000   0.0000   0.0000   0.0000   0.0000
     0.0000   0.0000   0.0000   0.0000   0.0000   0.0000   0.0000   0.0000
     0.0000   0.0000   0.0000   0.0000   0.0000   0.0000   0.0000   0.0000
     0.0000   0.0000   0.0000   0.0000   0.0000   0.0000   0.0000   0.0000
     0.0000   0.0000   0.0000   0.0000

          k = 0.0000 0.0000 0.2489 (  2577 PWs)   bands (ev):

   -44.8584 -22.0953 -22.0151 -22.0151 -14.3694  -6.4383  -5.6863  -5.6323
     0.3566   0.3566   0.5148   7.0975   7.8366   7.8366   8.5011   8.5011
     8.6861   8.9949   9.7864   9.7864  11.9305  12.9430  12.9430  13.9777
    15.2838  16.1411  16.3013  18.5497  18.8573  19.3021  19.3021  24.6063
    27.2842  27.2842  27.6367  27.9088  28.9230  29.1015  30.0527  30.0527
    31.3103  31.3103  33.5562  34.3171  36.4604  36.4604  36.6555  39.2111
    39.2111  39.4111  40.8788  40.8788  41.6655  41.6897  41.8424  44.4161
    44.8856  45.8326  45.8326  46.9357

     occupation numbers 
     1.0000   1.0000   1.0000   1.0000   1.0000   1.0000   1.0000   1.0000
     1.0000   1.0000   1.0000   1.0000   1.0000   1.0000   1.0000   1.0000
     1.0000   1.0000   1.0000   1.0000   0.0000   0.0000   0.0000   0.0000
     0.0000   0.0000   0.0000   0.0000   0.0000   0.0000   0.0000   0.0000
     0.0000   0.0000   0.0000   0.0000   0.0000   0.0000   0.0000   0.0000
     0.0000   0.0000   0.0000   0.0000   0.0000   0.0000   0.0000   0.0000
     0.0000   0.0000   0.0000   0.0000   0.0000   0.0000   0.0000   0.0000
     0.0000   0.0000   0.0000   0.0000

          k = 0.0000 0.0000 0.3733 (  2609 PWs)   bands (ev):

   -44.8580 -22.1147 -22.0144 -22.0144 -14.3270  -6.5446  -5.6191  -5.5605
     0.4145   0.4145   0.6734   6.4912   7.6331   7.6331   8.3141   8.3141
     8.4131   8.5229   9.6659   9.6659  11.9821  13.4320  13.4320  13.9780
    15.8638  16.8763  17.2499  18.4396  19.7133  19.7133  20.3425  23.9901
    25.1627  27.3596  27.4671  27.4671  28.0470  29.6260  29.6260  29.8586
    31.4127  31.4127  33.6759  34.4260  35.5604  35.5604  36.4751  38.1741
    38.1741  40.0947  41.3736  41.8408  41.8408  42.1733  42.2926  43.7967
    44.0808  45.1319  46.3765  46.3765

     occupation numbers 
     1.0000   1.0000   1.0000   1.0000   1.0000   1.0000   1.0000   1.0000
     1.0000   1.0000   1.0000   1.0000   1.0000   1.0000   1.0000   1.0000
     1.0000   1.0000   1.0000   1.0000   0.0000   0.0000   0.0000   0.0000
     0.0000   0.0000   0.0000   0.0000   0.0000   0.0000   0.0000   0.0000
     0.0000   0.0000   0.0000   0.0000   0.0000   0.0000   0.0000   0.0000
     0.0000   0.0000   0.0000   0.0000   0.0000   0.0000   0.0000   0.0000
     0.0000   0.0000   0.0000   0.0000   0.0000   0.0000   0.0000   0.0000
     0.0000   0.0000   0.0000   0.0000

          k = 0.0000 0.0000-0.4977 (  2594 PWs)   bands (ev):

   -44.8578 -22.1227 -22.0141 -22.0141 -14.3092  -6.5964  -5.6135  -5.4965
     0.4392   0.4392   0.7386   6.2499   7.5393   7.5393   8.2576   8.2576
     8.3092   8.3499   9.6203   9.6203  12.0040  13.6261  13.6261  13.9786
    16.0759  17.1958  17.7152  18.3933  19.8784  19.8784  21.6798  23.2658
    23.7680  27.1779  27.5799  27.5799  27.6113  29.4219  29.4219  30.9936
    31.5052  31.5052  32.9329  33.7215  35.1027  35.1027  37.7709  37.7963
    37.7963  40.4181  40.9724  42.2156  42.5512  42.5512  42.6009  43.2343
    43.9540  43.9979  45.6717  45.6717

     occupation numbers 
     1.0000   1.0000   1.0000   1.0000   1.0000   1.0000   1.0000   1.0000
     1.0000   1.0000   1.0000   1.0000   1.0000   1.0000   1.0000   1.0000
     1.0000   1.0000   1.0000   1.0000   0.0000   0.0000   0.0000   0.0000
     0.0000   0.0000   0.0000   0.0000   0.0000   0.0000   0.0000   0.0000
     0.0000   0.0000   0.0000   0.0000   0.0000   0.0000   0.0000   0.0000
     0.0000   0.0000   0.0000   0.0000   0.0000   0.0000   0.0000   0.0000
     0.0000   0.0000   0.0000   0.0000   0.0000   0.0000   0.0000   0.0000
     0.0000   0.0000   0.0000   0.0000

          k = 0.0000 0.1250 0.0000 (  2579 PWs)   bands (ev):

   -44.8589 -22.0673 -22.0246 -22.0158 -14.4104  -6.4013  -5.7297  -5.6426
     0.3023   0.3092   0.3422   7.7723   7.9785   7.9850   8.7559   8.8358
     9.0358   9.5979   9.8276   9.9340  12.1413  12.1993  12.3119  14.0963
    14.4733  15.4339  15.5035  17.8192  18.6541  18.8767  18.8772  25.1306
    27.0478  27.1866  27.6779  28.7599  30.1194  30.7203  30.7521  30.9296
    30.9984  31.5141  32.4273  33.2971  36.9070  37.1191  38.1175  38.8592
    39.6587  39.7610  41.0979  41.2379  41.4744  41.4765  41.7419  43.8161
    44.7690  44.9347  44.9371  46.4230

     occupation numbers 
     1.0000   1.0000   1.0000   1.0000   1.0000   1.0000   1.0000   1.0000
     1.0000   1.0000   1.0000   1.0000   1.0000   1.0000   1.0000   1.0000
     1.0000   1.0000   1.0000   1.0000   0.0000   0.0000   0.0000   0.0000
     0.0000   0.0000   0.0000   0.0000   0.0000   0.0000   0.0000   0.0000
     0.0000   0.0000   0.0000   0.0000   0.0000   0.0000   0.0000   0.0000
     0.0000   0.0000   0.0000   0.0000   0.0000   0.0000   0.0000   0.0000
     0.0000   0.0000   0.0000   0.0000   0.0000   0.0000   0.0000   0.0000
     0.0000   0.0000   0.0000   0.0000

          k = 0.0000 0.1250 0.1244 (  2594 PWs)   bands (ev):

   -44.8587 -22.0754 -22.0243 -22.0155 -14.3943  -6.3856  -5.7400  -5.6372
     0.2800   0.3257   0.4350   7.6022   7.8245   7.9496   8.4821   8.6678
     9.1010   9.4034   9.7574   9.8101  12.1822  12.4204  12.4943  14.2270
    14.7450  15.6969  15.8000  18.0531  18.8044  18.8817  19.1084  25.0628
    26.7502  27.1687  28.0784  28.2063  29.9189  30.3428  30.7000  30.8739
    30.9980  31.4874  32.2801  32.6798  36.7140  36.9125  38.5236  39.0988
    39.8122  39.9002  40.4084  41.3611  41.4974  41.6083  42.3740  42.8410
    44.6079  44.6836  45.6576  45.9929

     occupation numbers 
     1.0000   1.0000   1.0000   1.0000   1.0000   1.0000   1.0000   1.0000
     1.0000   1.0000   1.0000   1.0000   1.0000   1.0000   1.0000   1.0000
     1.0000   1.0000   1.0000   1.0000   0.0000   0.0000   0.0000   0.0000
     0.0000   0.0000   0.0000   0.0000   0.0000   0.0000   0.0000   0.0000
     0.0000   0.0000   0.0000   0.0000   0.0000   0.0000   0.0000   0.0000
     0.0000   0.0000   0.0000   0.0000   0.0000   0.0000   0.0000   0.0000
     0.0000   0.0000   0.0000   0.0000   0.0000   0.0000   0.0000   0.0000
     0.0000   0.0000   0.0000   0.0000

          k = 0.0000 0.1250 0.2489 (  2595 PWs)   bands (ev):

   -44.8582 -22.0949 -22.0234 -22.0148 -14.3548  -6.4014  -5.7053  -5.6208
     0.3082   0.3835   0.5566   7.0353   7.6204   7.8262   8.0751   8.3638
     8.8794   9.1318   9.6046   9.6545  12.2242  12.9481  12.9507  14.2751
    15.4617  16.3389  16.5902  18.6974  18.7488  19.2996  19.6997  24.7003
    26.5486  26.9636  27.6652  27.8524  29.1080  29.1938  30.0136  30.5813
    30.8966  31.5530  32.2086  34.1238  36.3837  36.5238  36.9162  38.8337
    38.8587  39.9083  40.7296  41.1809  41.9494  42.2761  42.5565  43.1612
    44.5530  45.2667  45.3412  46.5317

     occupation numbers 
     1.0000   1.0000   1.0000   1.0000   1.0000   1.0000   1.0000   1.0000
     1.0000   1.0000   1.0000   1.0000   1.0000   1.0000   1.0000   1.0000
     1.0000   1.0000   1.0000   1.0000   0.0000   0.0000   0.0000   0.0000
     0.0000   0.0000   0.0000   0.0000   0.0000   0.0000   0.0000   0.0000
     0.0000   0.0000   0.0000   0.0000   0.0000   0.0000   0.0000   0.0000
     0.0000   0.0000   0.0000   0.0000   0.0000   0.0000   0.0000   0.0000
     0.0000   0.0000   0.0000   0.0000   0.0000   0.0000   0.0000   0.0000
     0.0000   0.0000   0.0000   0.0000

          k = 0.0000 0.1250 0.3733 (  2588 PWs)   bands (ev):

   -44.8577 -22.1142 -22.0226 -22.0141 -14.3147  -6.4788  -5.6149  -5.5858
     0.3698   0.4434   0.6395   6.4619   7.4442   7.6363   7.7427   8.1786
     8.5908   9.0642   9.4687   9.4718  12.2658  13.4080  13.4339  14.2846
    16.0494  17.0342  17.5371  18.6629  19.3059  19.7302  20.7295  24.0793
    25.1363  26.5734  26.8140  27.6348  28.2564  29.2600  30.3621  30.3835
    30.9946  31.5280  32.7148  34.7404  35.2051  35.8423  36.4191  37.8315
    37.8397  40.2568  41.0927  41.7507  41.9977  42.6048  43.2313  43.4144
    44.0382  44.7196  45.6066  45.8703

     occupation numbers 
     1.0000   1.0000   1.0000   1.0000   1.0000   1.0000   1.0000   1.0000
     1.0000   1.0000   1.0000   1.0000   1.0000   1.0000   1.0000   1.0000
     1.0000   1.0000   1.0000   1.0000   0.0000   0.0000   0.0000   0.0000
     0.0000   0.0000   0.0000   0.0000   0.0000   0.0000   0.0000   0.0000
     0.0000   0.0000   0.0000   0.0000   0.0000   0.0000   0.0000   0.0000
     0.0000   0.0000   0.0000   0.0000   0.0000   0.0000   0.0000   0.0000
     0.0000   0.0000   0.0000   0.0000   0.0000   0.0000   0.0000   0.0000
     0.0000   0.0000   0.0000   0.0000

          k = 0.0000 0.1250-0.4977 (  2596 PWs)   bands (ev):

   -44.8576 -22.1222 -22.0223 -22.0138 -14.2978  -6.5216  -5.6016  -5.5325
     0.4024   0.4689   0.6651   6.2290   7.3732   7.5431   7.6205   8.1259
     8.4816   9.0714   9.3653   9.4221  12.2833  13.5993  13.6261  14.2858
    16.2642  17.3533  18.0041  18.6261  19.4782  19.9034  21.9905  23.1971
    23.8367  26.4172  26.9744  27.6771  27.8642  29.0893  30.2393  30.6465
    31.5724  31.6965  33.1274  33.5971  34.8642  35.0055  36.7265  37.5656
    38.2641  40.5858  41.0538  41.3040  42.1992  42.8782  43.2284  43.4662
    43.7320  44.4106  45.6635  46.3319

     occupation numbers 
     1.0000   1.0000   1.0000   1.0000   1.0000   1.0000   1.0000   1.0000
     1.0000   1.0000   1.0000   1.0000   1.0000   1.0000   1.0000   1.0000
     1.0000   1.0000   1.0000   1.0000   0.0000   0.0000   0.0000   0.0000
     0.0000   0.0000   0.0000   0.0000   0.0000   0.0000   0.0000   0.0000
     0.0000   0.0000   0.0000   0.0000   0.0000   0.0000   0.0000   0.0000
     0.0000   0.0000   0.0000   0.0000   0.0000   0.0000   0.0000   0.0000
     0.0000   0.0000   0.0000   0.0000   0.0000   0.0000   0.0000   0.0000
     0.0000   0.0000   0.0000   0.0000

          k = 0.0000 0.2500 0.0000 (  2585 PWs)   bands (ev):

   -44.8584 -22.0665 -22.0449 -22.0151 -14.3673  -6.4831  -5.7027  -5.5652
     0.3623   0.3671   0.4943   7.1692   7.8142   7.8381   8.4010   8.6009
     8.7550   9.0431   9.5741   9.6925  12.1976  12.8044  12.8315  14.1036
    15.2038  16.1802  16.2887  18.5553  18.8227  19.2908  19.3276  24.7050
    27.1752  27.3498  27.8548  27.9039  28.8221  29.1628  30.1915  30.3022
    31.0928  31.1516  33.4679  34.3565  36.1907  36.4711  36.6975  39.1846
    39.2747  39.4570  40.8743  40.8965  41.6719  41.7347  41.9494  44.2520
    45.0603  45.6443  45.8133  46.9404

     occupation numbers 
     1.0000   1.0000   1.0000   1.0000   1.0000   1.0000   1.0000   1.0000
     1.0000   1.0000   1.0000   1.0000   1.0000   1.0000   1.0000   1.0000
     1.0000   1.0000   1.0000   1.0000   0.0000   0.0000   0.0000   0.0000
     0.0000   0.0000   0.0000   0.0000   0.0000   0.0000   0.0000   0.0000
     0.0000   0.0000   0.0000   0.0000   0.0000   0.0000   0.0000   0.0000
     0.0000   0.0000   0.0000   0.0000   0.0000   0.0000   0.0000   0.0000
     0.0000   0.0000   0.0000   0.0000   0.0000   0.0000   0.0000   0.0000
     0.0000   0.0000   0.0000   0.0000

          k = 0.0000 0.2500 0.1244 (  2589 PWs)   bands (ev):

   -44.8582 -22.0745 -22.0445 -22.0148 -14.3533  -6.4360  -5.7104  -5.5770
     0.3125   0.3875   0.5453   7.0948   7.6165   7.7998   8.0536   8.4415
     8.8965   9.1037   9.4756   9.6253  12.4309  12.8174  12.9017  14.3419
    15.3966  16.3587  16.5913  18.6824  18.7601  19.2839  19.7085  24.7724
    26.5546  26.9694  27.6857  27.9644  28.9830  29.2870  30.1757  30.6794
    30.7862  31.4139  32.0915  34.1606  36.3916  36.4588  36.8580  38.9066
    38.9099  39.9613  40.7173  41.1152  41.9041  42.2936  42.5372  43.1276
    44.6304  45.2041  45.2671  46.4463

     occupation numbers 
     1.0000   1.0000   1.0000   1.0000   1.0000   1.0000   1.0000   1.0000
     1.0000   1.0000   1.0000   1.0000   1.0000   1.0000   1.0000   1.0000
     1.0000   1.0000   1.0000   1.0000   0.0000   0.0000   0.0000   0.0000
     0.0000   0.0000   0.0000   0.0000   0.0000   0.0000   0.0000   0.0000
     0.0000   0.0000   0.0000   0.0000   0.0000   0.0000   0.0000   0.0000
     0.0000   0.0000   0.0000   0.0000   0.0000   0.0000   0.0000   0.0000
     0.0000   0.0000   0.0000   0.0000   0.0000   0.0000   0.0000   0.0000
     0.0000   0.0000   0.0000   0.0000

          k = 0.0000 0.2500 0.2489 (  2616 PWs)   bands (ev):

   -44.8578 -22.0938 -22.0435 -22.0141 -14.3192  -6.3481  -5.7234  -5.5788
     0.2725   0.4501   0.5729   6.8387   7.1770   7.5813   7.7494   8.1095
     8.7659   9.2171   9.2756   9.7038  12.8010  12.9861  13.1543  14.5772
    15.9988  16.8275  17.3899  18.7110  19.1616  19.3519  20.3450  24.8630
    25.6339  26.1469  27.6966  27.7853  27.9370  28.9620  30.1918  30.4207
    30.9890  31.5343  32.2134  33.9586  36.4113  36.6705  36.8867  37.7332
    37.8656  39.8243  40.6497  40.8257  41.7364  42.6916  42.9887  44.1938
    44.4857  45.2388  45.2431  46.0181

     occupation numbers 
     1.0000   1.0000   1.0000   1.0000   1.0000   1.0000   1.0000   1.0000
     1.0000   1.0000   1.0000   1.0000   1.0000   1.0000   1.0000   1.0000
     1.0000   1.0000   1.0000   1.0000   0.0000   0.0000   0.0000   0.0000
     0.0000   0.0000   0.0000   0.0000   0.0000   0.0000   0.0000   0.0000
     0.0000   0.0000   0.0000   0.0000   0.0000   0.0000   0.0000   0.0000
     0.0000   0.0000   0.0000   0.0000   0.0000   0.0000   0.0000   0.0000
     0.0000   0.0000   0.0000   0.0000   0.0000   0.0000   0.0000   0.0000
     0.0000   0.0000   0.0000   0.0000

          k = 0.0000 0.2500 0.3733 (  2602 PWs)   bands (ev):

   -44.8573 -22.1130 -22.0425 -22.0134 -14.2846  -6.3196  -5.6771  -5.5707
     0.2930   0.5152   0.5360   6.3983   6.8732   7.2705   7.6340   7.8769
     8.7896   9.1116   9.2260   9.6979  12.8442  13.4399  13.5018  14.6481
    16.5867  17.4090  18.3487  18.8258  19.1927  19.7784  21.2356  24.2784
    25.0548  25.5453  25.7639  27.7635  27.8782  28.5036  29.6339  31.2342
    31.2725  32.2108  32.7355  34.3575  34.8525  36.2067  36.5248  37.3544
    37.9280  38.7328  40.5073  40.9455  41.6495  43.0377  43.5226  43.5247
    44.0382  44.7773  45.2981  46.1788

     occupation numbers 
     1.0000   1.0000   1.0000   1.0000   1.0000   1.0000   1.0000   1.0000
     1.0000   1.0000   1.0000   1.0000   1.0000   1.0000   1.0000   1.0000
     1.0000   1.0000   1.0000   1.0000   0.0000   0.0000   0.0000   0.0000
     0.0000   0.0000   0.0000   0.0000   0.0000   0.0000   0.0000   0.0000
     0.0000   0.0000   0.0000   0.0000   0.0000   0.0000   0.0000   0.0000
     0.0000   0.0000   0.0000   0.0000   0.0000   0.0000   0.0000   0.0000
     0.0000   0.0000   0.0000   0.0000   0.0000   0.0000   0.0000   0.0000
     0.0000   0.0000   0.0000   0.0000

          k = 0.0000 0.2500-0.4977 (  2600 PWs)   bands (ev):

   -44.8571 -22.1208 -22.0421 -22.0131 -14.2700  -6.3276  -5.6232  -5.5792
     0.3245   0.4967   0.5430   6.1878   6.7441   7.2008   7.5507   7.8224
     8.8621   9.0514   9.1833   9.6635  12.8559  13.6273  13.6684  14.6618
    16.8081  17.7398  18.6789  18.9431  19.1844  19.9715  22.5436  23.0667
    23.9587  25.3365  25.7940  27.7980  27.9710  28.2209  29.3462  31.4547
    31.9433  32.2490  33.2698  34.4911  34.7149  34.9321  35.5006  37.7674
    38.2540  39.1912  40.0363  40.6537  41.8810  42.4705  42.6013  44.3065
    44.5509  44.7192  45.0433  45.7485

     occupation numbers 
     1.0000   1.0000   1.0000   1.0000   1.0000   1.0000   1.0000   1.0000
     1.0000   1.0000   1.0000   1.0000   1.0000   1.0000   1.0000   1.0000
     1.0000   1.0000   1.0000   1.0000   0.0000   0.0000   0.0000   0.0000
     0.0000   0.0000   0.0000   0.0000   0.0000   0.0000   0.0000   0.0000
     0.0000   0.0000   0.0000   0.0000   0.0000   0.0000   0.0000   0.0000
     0.0000   0.0000   0.0000   0.0000   0.0000   0.0000   0.0000   0.0000
     0.0000   0.0000   0.0000   0.0000   0.0000   0.0000   0.0000   0.0000
     0.0000   0.0000   0.0000   0.0000

          k = 0.0000 0.3750 0.0000 (  2601 PWs)   bands (ev):

   -44.8579 -22.0660 -22.0648 -22.0143 -14.3233  -6.6011  -5.6862  -5.4267
     0.4245   0.4274   0.6434   6.5932   7.5848   7.6440   8.1259   8.4661
     8.4742   8.6725   9.3808   9.4976  12.2401  13.3356  13.3650  14.0965
    15.7213  16.9214  17.2608  18.4560  19.6492  19.6855  20.3952  24.1063
    25.2458  27.2766  27.5532  27.6443  28.1479  29.3745  29.6205  30.2600
    31.2928  31.3778  33.6009  34.2121  35.4809  35.5558  36.5947  38.0714
    38.1918  40.1369  41.2827  41.6823  42.0377  42.0524  42.5058  43.7838
    44.2048  45.1469  46.2319  46.3333

     occupation numbers 
     1.0000   1.0000   1.0000   1.0000   1.0000   1.0000   1.0000   1.0000
     1.0000   1.0000   1.0000   1.0000   1.0000   1.0000   1.0000   1.0000
     1.0000   1.0000   1.0000   1.0000   0.0000   0.0000   0.0000   0.0000
     0.0000   0.0000   0.0000   0.0000   0.0000   0.0000   0.0000   0.0000
     0.0000   0.0000   0.0000   0.0000   0.0000   0.0000   0.0000   0.0000
     0.0000   0.0000   0.0000   0.0000   0.0000   0.0000   0.0000   0.0000
     0.0000   0.0000   0.0000   0.0000   0.0000   0.0000   0.0000   0.0000
     0.0000   0.0000   0.0000   0.0000

          k = 0.0000 0.3750 0.1244 (  2607 PWs)   bands (ev):

   -44.8577 -22.0737 -22.0646 -22.0140 -14.3116  -6.5316  -5.6816  -5.4580
     0.3823   0.4518   0.6132   6.5578   7.4669   7.5753   7.6744   8.3323
     8.6018   9.0496   9.2584   9.3876  12.4697  13.3398  13.3866  14.3566
    15.9152  17.0640  17.5591  18.6862  19.2755  19.6959  20.7503  24.1761
    25.2181  26.5480  26.8982  27.7532  28.3327  29.1607  30.3595  30.4131
    31.0763  31.4742  32.6127  34.5976  35.1684  35.8487  36.4946  37.8298
    37.8602  40.2145  41.0917  41.6891  41.9664  42.6946  43.1446  43.3619
    44.2787  44.7434  45.4740  45.6745

     occupation numbers 
     1.0000   1.0000   1.0000   1.0000   1.0000   1.0000   1.0000   1.0000
     1.0000   1.0000   1.0000   1.0000   1.0000   1.0000   1.0000   1.0000
     1.0000   1.0000   1.0000   1.0000   0.0000   0.0000   0.0000   0.0000
     0.0000   0.0000   0.0000   0.0000   0.0000   0.0000   0.0000   0.0000
     0.0000   0.0000   0.0000   0.0000   0.0000   0.0000   0.0000   0.0000
     0.0000   0.0000   0.0000   0.0000   0.0000   0.0000   0.0000   0.0000
     0.0000   0.0000   0.0000   0.0000   0.0000   0.0000   0.0000   0.0000
     0.0000   0.0000   0.0000   0.0000

          k = 0.0000 0.3750 0.2489 (  2602 PWs)   bands (ev):

   -44.8572 -22.0927 -22.0634 -22.0133 -14.2830  -6.3572  -5.6875  -5.5186
     0.3035   0.5192   0.5196   6.4707   6.9005   7.1864   7.5482   8.0110
     8.7833   9.0181   9.1870   9.7098  12.9722  13.3516  13.5058  14.6739
    16.5063  17.4194  18.3847  18.8023  19.2357  19.7279  21.2434  24.3274
    25.1347  25.5332  25.7897  27.8350  27.8565  28.4603  29.6183  31.2577
    31.3160  32.1157  32.7524  34.3888  34.8128  36.2132  36.4928  37.3813
    38.0391  38.6028  40.5112  40.8679  41.6945  43.0065  43.5951  43.5952
    44.0208  44.7625  45.1641  46.0738

     occupation numbers 
     1.0000   1.0000   1.0000   1.0000   1.0000   1.0000   1.0000   1.0000
     1.0000   1.0000   1.0000   1.0000   1.0000   1.0000   1.0000   1.0000
     1.0000   1.0000   1.0000   1.0000   0.0000   0.0000   0.0000   0.0000
     0.0000   0.0000   0.0000   0.0000   0.0000   0.0000   0.0000   0.0000
     0.0000   0.0000   0.0000   0.0000   0.0000   0.0000   0.0000   0.0000
     0.0000   0.0000   0.0000   0.0000   0.0000   0.0000   0.0000   0.0000
     0.0000   0.0000   0.0000   0.0000   0.0000   0.0000   0.0000   0.0000
     0.0000   0.0000   0.0000   0.0000

          k = 0.0000 0.3750 0.3733 (  2593 PWs)   bands (ev):

   -44.8568 -22.1117 -22.0622 -22.0126 -14.2540  -6.1745  -5.7127  -5.5615
     0.2605   0.4028   0.5903   6.2863   6.4567   6.7598   7.5133   7.7141
     8.8286   9.0285   9.3416   9.9328  13.3485  13.4507  13.7224  14.7907
    17.1348  17.8283  18.4431  19.5378  19.6955  19.8553  21.8384  24.2961
    24.5294  24.7992  25.2319  25.7984  27.8964  27.9011  30.3284  31.2623
    31.7036  33.1713  33.5540  33.9331  34.2772  35.4265  37.0884  37.7077
    37.7132  38.2867  39.9757  40.1335  41.0260  42.0743  42.1225  43.1135
    43.4747  45.3405  45.4285  46.2105

     occupation numbers 
     1.0000   1.0000   1.0000   1.0000   1.0000   1.0000   1.0000   1.0000
     1.0000   1.0000   1.0000   1.0000   1.0000   1.0000   1.0000   1.0000
     1.0000   1.0000   1.0000   1.0000   0.0000   0.0000   0.0000   0.0000
     0.0000   0.0000   0.0000   0.0000   0.0000   0.0000   0.0000   0.0000
     0.0000   0.0000   0.0000   0.0000   0.0000   0.0000   0.0000   0.0000
     0.0000   0.0000   0.0000   0.0000   0.0000   0.0000   0.0000   0.0000
     0.0000   0.0000   0.0000   0.0000   0.0000   0.0000   0.0000   0.0000
     0.0000   0.0000   0.0000   0.0000

          k = 0.0000 0.3750-0.4977 (  2594 PWs)   bands (ev):

   -44.8566 -22.1195 -22.0617 -22.0124 -14.2418  -6.1009  -5.7108  -5.5875
     0.2600   0.3413   0.6206   6.1316   6.2906   6.6673   7.4942   7.5989
     8.7612   9.2309   9.3217   9.9884  13.3603  13.6301  13.8407  14.8146
    17.3845  18.1535  18.1840  19.7443  20.0520  20.1706  22.9321  23.1614
    24.0285  24.5338  24.6422  25.6715  27.7445  27.9275  30.3222  32.0485
    32.2570  32.7093  32.9184  33.9097  34.8024  35.7680  36.1928  37.7996
    38.0732  38.1873  40.0142  40.2458  40.9992  41.0616  41.4911  42.8520
    43.0114  44.7745  45.7182  46.3339

     occupation numbers 
     1.0000   1.0000   1.0000   1.0000   1.0000   1.0000   1.0000   1.0000
     1.0000   1.0000   1.0000   1.0000   1.0000   1.0000   1.0000   1.0000
     1.0000   1.0000   1.0000   1.0000   0.0000   0.0000   0.0000   0.0000
     0.0000   0.0000   0.0000   0.0000   0.0000   0.0000   0.0000   0.0000
     0.0000   0.0000   0.0000   0.0000   0.0000   0.0000   0.0000   0.0000
     0.0000   0.0000   0.0000   0.0000   0.0000   0.0000   0.0000   0.0000
     0.0000   0.0000   0.0000   0.0000   0.0000   0.0000   0.0000   0.0000
     0.0000   0.0000   0.0000   0.0000

          k = 0.0000-0.5000 0.0000 (  2594 PWs)   bands (ev):

   -44.8577 -22.0734 -22.0654 -22.0140 -14.3048  -6.6553  -5.6802  -5.3587
     0.4511   0.4530   0.7044   6.3620   7.4815   7.5550   8.0091   8.3351
     8.4405   8.5829   9.3100   9.4259  12.2586  13.5416  13.5903  14.0872
    15.8959  17.2414  17.7411  18.4149  19.8327  19.8425  21.7108  23.3727
    23.8440  27.0928  27.7103  27.7567  27.8247  29.2648  29.3393  31.4326
    31.5130  31.6086  32.3719  33.6583  35.0644  35.0805  37.6527  37.6565
    37.9557  40.5015  41.0205  41.9813  42.2494  42.7353  42.9285  43.1734
    43.9312  44.3209  45.5323  45.5791

     occupation numbers 
     1.0000   1.0000   1.0000   1.0000   1.0000   1.0000   1.0000   1.0000
     1.0000   1.0000   1.0000   1.0000   1.0000   1.0000   1.0000   1.0000
     1.0000   1.0000   1.0000   1.0000   0.0000   0.0000   0.0000   0.0000
     0.0000   0.0000   0.0000   0.0000   0.0000   0.0000   0.0000   0.0000
     0.0000   0.0000   0.0000   0.0000   0.0000   0.0000   0.0000   0.0000
     0.0000   0.0000   0.0000   0.0000   0.0000   0.0000   0.0000   0.0000
     0.0000   0.0000   0.0000   0.0000   0.0000   0.0000   0.0000   0.0000
     0.0000   0.0000   0.0000   0.0000

          k = 0.0000-0.5000 0.1244 (  2600 PWs)   bands (ev):

   -44.8575 -22.0733 -22.0729 -22.0137 -14.2940  -6.5786  -5.6715  -5.3954
     0.4213   0.4793   0.6297   6.3364   7.4448   7.4714   7.4930   8.3077
     8.4909   9.1221   9.1783   9.2083  12.4858  13.5440  13.6000  14.3544
    16.0919  17.3857  18.0407  18.6553  19.4470  19.8600  22.0065  23.2885
    23.9083  26.3801  27.1560  27.8504  27.9262  28.9658  30.1774  30.5584
    31.5609  32.3069  32.6017  33.5130  34.8420  34.9840  36.7316  37.5269
    38.2934  40.6778  40.9280  41.2611  42.4364  42.5400  43.3374  43.5033
    43.7152  44.6609  45.4408  46.0229

     occupation numbers 
     1.0000   1.0000   1.0000   1.0000   1.0000   1.0000   1.0000   1.0000
     1.0000   1.0000   1.0000   1.0000   1.0000   1.0000   1.0000   1.0000
     1.0000   1.0000   1.0000   1.0000   0.0000   0.0000   0.0000   0.0000
     0.0000   0.0000   0.0000   0.0000   0.0000   0.0000   0.0000   0.0000
     0.0000   0.0000   0.0000   0.0000   0.0000   0.0000   0.0000   0.0000
     0.0000   0.0000   0.0000   0.0000   0.0000   0.0000   0.0000   0.0000
     0.0000   0.0000   0.0000   0.0000   0.0000   0.0000   0.0000   0.0000
     0.0000   0.0000   0.0000   0.0000

          k = 0.0000-0.5000 0.2489 (  2592 PWs)   bands (ev):

   -44.8570 -22.0923 -22.0716 -22.0130 -14.2678  -6.3771  -5.6625  -5.4846
     0.3544   0.4582   0.5493   6.2808   6.7761   7.0917   7.4428   7.9998
     8.8778   8.9222   9.1048   9.6841  12.9845  13.5502  13.6821  14.6929
    16.6879  17.7514  18.7483  18.9019  19.2369  19.9074  22.5538  23.1197
    24.0079  25.3180  25.8967  27.9104  27.9342  28.1871  29.3049  31.5564
    31.7422  32.4465  33.1472  34.6243  34.7609  34.8067  35.4388  37.7998
    38.2774  39.0236  40.1130  40.6775  41.8925  42.4581  42.5931  44.4801
    44.5047  44.5636  44.8871  45.7633

     occupation numbers 
     1.0000   1.0000   1.0000   1.0000   1.0000   1.0000   1.0000   1.0000
     1.0000   1.0000   1.0000   1.0000   1.0000   1.0000   1.0000   1.0000
     1.0000   1.0000   1.0000   1.0000   0.0000   0.0000   0.0000   0.0000
     0.0000   0.0000   0.0000   0.0000   0.0000   0.0000   0.0000   0.0000
     0.0000   0.0000   0.0000   0.0000   0.0000   0.0000   0.0000   0.0000
     0.0000   0.0000   0.0000   0.0000   0.0000   0.0000   0.0000   0.0000
     0.0000   0.0000   0.0000   0.0000   0.0000   0.0000   0.0000   0.0000
     0.0000   0.0000   0.0000   0.0000

          k = 0.0000-0.5000 0.3733 (  2584 PWs)   bands (ev):

   -44.8565 -22.1112 -22.0703 -22.0123 -14.2412  -6.1305  -5.6922  -5.5748
     0.2991   0.3001   0.6225   6.1755   6.3175   6.5974   7.4079   7.7075
     8.7244   9.2541   9.2840   9.9940  13.4459  13.5565  13.8473  14.8214
    17.3416  18.1580  18.1876  19.8272  19.9645  20.1860  23.0472  23.0601
    24.0566  24.5285  24.6630  25.6482  27.7300  27.9664  30.3228  32.1452
    32.3056  32.6569  32.6825  34.1734  34.6745  35.8336  36.1335  37.8374
    37.9991  38.2014  40.0085  40.3298  40.8502  41.0699  41.6059  42.8179
    42.9121  44.8613  45.7125  46.0763

     occupation numbers 
     1.0000   1.0000   1.0000   1.0000   1.0000   1.0000   1.0000   1.0000
     1.0000   1.0000   1.0000   1.0000   1.0000   1.0000   1.0000   1.0000
     1.0000   1.0000   1.0000   1.0000   0.0000   0.0000   0.0000   0.0000
     0.0000   0.0000   0.0000   0.0000   0.0000   0.0000   0.0000   0.0000
     0.0000   0.0000   0.0000   0.0000   0.0000   0.0000   0.0000   0.0000
     0.0000   0.0000   0.0000   0.0000   0.0000   0.0000   0.0000   0.0000
     0.0000   0.0000   0.0000   0.0000   0.0000   0.0000   0.0000   0.0000
     0.0000   0.0000   0.0000   0.0000

          k = 0.0000-0.5000-0.4977 (  2580 PWs)   bands (ev):

   -44.8563 -22.1190 -22.0698 -22.0121 -14.2300  -5.9854  -5.7456  -5.6124
     0.2369   0.2809   0.6538   6.0589   6.1550   6.4608   7.3914   7.5900
     8.6551   9.3893   9.4075  10.0823  13.5593  13.6314  13.9408  14.8466
    17.6143  17.9725  18.3462  19.9921  20.0763  21.1249  23.2194  23.2504
    24.0127  24.0730  24.2154  24.2346  27.6665  27.9876  30.9372  32.2471
    32.2529  32.6234  33.0531  33.3648  34.6515  36.2448  37.2166  37.6977
    37.7471  38.1959  40.1787  40.3739  40.4295  40.5074  41.1753  41.7964
    41.8031  44.7532  45.8650  46.0089

     occupation numbers 
     1.0000   1.0000   1.0000   1.0000   1.0000   1.0000   1.0000   1.0000
     1.0000   1.0000   1.0000   1.0000   1.0000   1.0000   1.0000   1.0000
     1.0000   1.0000   1.0000   1.0000   0.0000   0.0000   0.0000   0.0000
     0.0000   0.0000   0.0000   0.0000   0.0000   0.0000   0.0000   0.0000
     0.0000   0.0000   0.0000   0.0000   0.0000   0.0000   0.0000   0.0000
     0.0000   0.0000   0.0000   0.0000   0.0000   0.0000   0.0000   0.0000
     0.0000   0.0000   0.0000   0.0000   0.0000   0.0000   0.0000   0.0000
     0.0000   0.0000   0.0000   0.0000

          k = 0.1250 0.1250 0.0000 (  2596 PWs)   bands (ev):

   -44.8587 -22.0670 -22.0245 -22.0240 -14.3937  -6.4023  -5.7122  -5.6465
     0.2742   0.3333   0.4314   7.6014   7.8585   7.9479   8.5097   8.6815
     9.1046   9.2033   9.8347   9.8692  12.2509  12.3770  12.3939  14.3523
    14.6645  15.7409  15.7600  18.0520  18.8088  18.8813  19.1026  25.0943
    26.7597  27.1568  28.0736  28.2319  30.1077  30.2452  30.7126  30.7159
    31.0326  31.6572  32.1828  32.6708  36.6897  36.7207  38.6150  38.9404
    39.9123  39.9163  40.4561  41.5149  41.5221  41.6334  42.3320  42.9387
    44.5559  44.6531  45.5260  45.8337

     occupation numbers 
     1.0000   1.0000   1.0000   1.0000   1.0000   1.0000   1.0000   1.0000
     1.0000   1.0000   1.0000   1.0000   1.0000   1.0000   1.0000   1.0000
     1.0000   1.0000   1.0000   1.0000   0.0000   0.0000   0.0000   0.0000
     0.0000   0.0000   0.0000   0.0000   0.0000   0.0000   0.0000   0.0000
     0.0000   0.0000   0.0000   0.0000   0.0000   0.0000   0.0000   0.0000
     0.0000   0.0000   0.0000   0.0000   0.0000   0.0000   0.0000   0.0000
     0.0000   0.0000   0.0000   0.0000   0.0000   0.0000   0.0000   0.0000
     0.0000   0.0000   0.0000   0.0000

          k = 0.1250 0.1250 0.1244 (  2599 PWs)   bands (ev):

   -44.8585 -22.0750 -22.0241 -22.0237 -14.3783  -6.3758  -5.7282  -5.6380
     0.2771   0.2866   0.5341   7.4349   7.7869   7.8248   8.4011   8.4207
     9.0715   9.2191   9.7232   9.7538  12.3695  12.5143  12.5373  14.6612
    14.7641  15.9698  16.0322  18.1155  19.0172  19.0217  19.2480  25.0507
    26.8334  26.8342  27.5880  28.5215  29.8985  30.0332  30.5378  31.0418
    31.0821  31.3159  31.6331  32.8409  34.7446  38.6380  38.6963  39.1342
    39.7489  39.8431  41.0927  41.1337  41.6510  41.9266  41.9705  42.3367
    43.8619  44.0126  45.3729  46.4590

     occupation numbers 
     1.0000   1.0000   1.0000   1.0000   1.0000   1.0000   1.0000   1.0000
     1.0000   1.0000   1.0000   1.0000   1.0000   1.0000   1.0000   1.0000
     1.0000   1.0000   1.0000   1.0000   0.0000   0.0000   0.0000   0.0000
     0.0000   0.0000   0.0000   0.0000   0.0000   0.0000   0.0000   0.0000
     0.0000   0.0000   0.0000   0.0000   0.0000   0.0000   0.0000   0.0000
     0.0000   0.0000   0.0000   0.0000   0.0000   0.0000   0.0000   0.0000
     0.0000   0.0000   0.0000   0.0000   0.0000   0.0000   0.0000   0.0000
     0.0000   0.0000   0.0000   0.0000

          k = 0.1250 0.1250 0.2489 (  2601 PWs)   bands (ev):

   -44.8580 -22.0944 -22.0233 -22.0229 -14.3408  -6.3609  -5.7104  -5.6173
     0.2835   0.3077   0.6430   6.9578   7.4873   7.7139   8.0816   8.1130
     8.8413   9.1928   9.5512   9.5747  12.4355  12.9607  12.9838  14.6546
    15.5520  16.5467  16.7800  18.4735  19.0347  19.2984  20.0244  24.7714
    26.3138  26.9474  27.0563  27.9023  29.1506  29.3309  30.1913  30.6430
    30.8025  31.4493  31.7892  34.0264  34.2543  37.0893  37.6852  39.3515
    39.8840  39.9149  40.2904  41.1723  41.7257  42.2745  42.9966  43.1051
    43.3636  43.3926  45.9188  46.6684

     occupation numbers 
     1.0000   1.0000   1.0000   1.0000   1.0000   1.0000   1.0000   1.0000
     1.0000   1.0000   1.0000   1.0000   1.0000   1.0000   1.0000   1.0000
     1.0000   1.0000   1.0000   1.0000   0.0000   0.0000   0.0000   0.0000
     0.0000   0.0000   0.0000   0.0000   0.0000   0.0000   0.0000   0.0000
     0.0000   0.0000   0.0000   0.0000   0.0000   0.0000   0.0000   0.0000
     0.0000   0.0000   0.0000   0.0000   0.0000   0.0000   0.0000   0.0000
     0.0000   0.0000   0.0000   0.0000   0.0000   0.0000   0.0000   0.0000
     0.0000   0.0000   0.0000   0.0000

          k = 0.1250 0.1250 0.3733 (  2596 PWs)   bands (ev):

   -44.8575 -22.1137 -22.0225 -22.0222 -14.3026  -6.4123  -5.6151  -5.5963
     0.2888   0.4166   0.6563   6.4369   7.2646   7.5828   7.7081   7.9460
     8.8678   9.0533   9.3268   9.4159  12.4836  13.4115  13.4421  14.6463
    16.1675  17.2017  17.6734  18.8387  19.2641  19.4453  21.0801  24.1900
    25.1254  26.0744  26.7451  27.3991  28.4665  29.7405  29.7529  30.4661
    30.9340  31.7228  32.4053  34.2167  35.2506  35.7134  35.8175  37.4142
    39.7973  40.2938  40.7102  41.0742  41.8551  42.4286  43.3805  43.4777
    44.2971  44.3340  44.8611  46.2512

     occupation numbers 
     1.0000   1.0000   1.0000   1.0000   1.0000   1.0000   1.0000   1.0000
     1.0000   1.0000   1.0000   1.0000   1.0000   1.0000   1.0000   1.0000
     1.0000   1.0000   1.0000   1.0000   0.0000   0.0000   0.0000   0.0000
     0.0000   0.0000   0.0000   0.0000   0.0000   0.0000   0.0000   0.0000
     0.0000   0.0000   0.0000   0.0000   0.0000   0.0000   0.0000   0.0000
     0.0000   0.0000   0.0000   0.0000   0.0000   0.0000   0.0000   0.0000
     0.0000   0.0000   0.0000   0.0000   0.0000   0.0000   0.0000   0.0000
     0.0000   0.0000   0.0000   0.0000

          k = 0.1250 0.1250-0.4977 (  2592 PWs)   bands (ev):

   -44.8573 -22.1216 -22.0221 -22.0219 -14.2866  -6.4467  -5.5875  -5.5591
     0.2907   0.5335   0.5874   6.2154   7.2098   7.5343   7.5368   7.8875
     8.9842   9.0169   9.1158   9.3552  12.5025  13.6038  13.6292  14.6408
    16.3899  17.5216  18.0608  18.9515  19.4416  19.5083  22.3134  23.1552
    23.9415  25.9727  26.6761  27.6521  28.1292  29.5649  29.7786  30.2815
    31.2764  32.2829  33.2431  33.4906  34.3106  35.3123  35.9744  36.9728
    39.5976  39.8514  41.1723  41.7790  41.8097  42.1461  42.9447  44.1516
    44.2234  44.8650  45.1611  45.4552

     occupation numbers 
     1.0000   1.0000   1.0000   1.0000   1.0000   1.0000   1.0000   1.0000
     1.0000   1.0000   1.0000   1.0000   1.0000   1.0000   1.0000   1.0000
     1.0000   1.0000   1.0000   1.0000   0.0000   0.0000   0.0000   0.0000
     0.0000   0.0000   0.0000   0.0000   0.0000   0.0000   0.0000   0.0000
     0.0000   0.0000   0.0000   0.0000   0.0000   0.0000   0.0000   0.0000
     0.0000   0.0000   0.0000   0.0000   0.0000   0.0000   0.0000   0.0000
     0.0000   0.0000   0.0000   0.0000   0.0000   0.0000   0.0000   0.0000
     0.0000   0.0000   0.0000   0.0000

          k = 0.1250 0.2500 0.0000 (  2594 PWs)   bands (ev):

   -44.8582 -22.0662 -22.0445 -22.0234 -14.3527  -6.4490  -5.6827  -5.5900
     0.3038   0.3932   0.5450   7.0857   7.6480   7.8334   8.1319   8.3805
     8.7500   9.0304   9.5832   9.6995  12.3404  12.8384  12.8799  14.3956
    15.3831  16.3942  16.5564  18.6779  18.7679  19.3031  19.6859  24.7872
    26.5655  27.0336  27.5899  28.0026  29.1571  29.2035  30.0388  30.6374
    30.9360  31.4144  32.1139  34.1389  36.2025  36.4976  36.8815  38.8310
    38.9542  39.9181  40.7006  41.2296  42.0434  42.2609  42.6121  43.2253
    44.4500  44.9651  45.3329  46.3704

     occupation numbers 
     1.0000   1.0000   1.0000   1.0000   1.0000   1.0000   1.0000   1.0000
     1.0000   1.0000   1.0000   1.0000   1.0000   1.0000   1.0000   1.0000
     1.0000   1.0000   1.0000   1.0000   0.0000   0.0000   0.0000   0.0000
     0.0000   0.0000   0.0000   0.0000   0.0000   0.0000   0.0000   0.0000
     0.0000   0.0000   0.0000   0.0000   0.0000   0.0000   0.0000   0.0000
     0.0000   0.0000   0.0000   0.0000   0.0000   0.0000   0.0000   0.0000
     0.0000   0.0000   0.0000   0.0000   0.0000   0.0000   0.0000   0.0000
     0.0000   0.0000   0.0000   0.0000

          k = 0.1250 0.2500 0.1244 (  2599 PWs)   bands (ev):

   -44.8580 -22.0742 -22.0441 -22.0231 -14.3393  -6.3978  -5.6908  -5.5958
     0.2888   0.3026   0.6386   6.9938   7.5277   7.7072   8.0957   8.1422
     8.6828   9.2016   9.5125   9.6099  12.5429  12.8885  12.9343  14.7299
    15.4783  16.5832  16.7604  18.4670  19.0470  19.2941  20.0157  24.8318
    26.3632  26.8929  27.1063  27.9964  29.1945  29.3109  30.2339  30.6649
    30.7990  31.4387  31.6218  34.0191  34.2393  37.0495  37.7252  39.4372
    39.8541  39.9433  40.2277  41.2103  41.6449  42.2385  42.9877  43.0923
    43.2542  43.4772  45.9270  46.5466

     occupation numbers 
     1.0000   1.0000   1.0000   1.0000   1.0000   1.0000   1.0000   1.0000
     1.0000   1.0000   1.0000   1.0000   1.0000   1.0000   1.0000   1.0000
     1.0000   1.0000   1.0000   1.0000   0.0000   0.0000   0.0000   0.0000
     0.0000   0.0000   0.0000   0.0000   0.0000   0.0000   0.0000   0.0000
     0.0000   0.0000   0.0000   0.0000   0.0000   0.0000   0.0000   0.0000
     0.0000   0.0000   0.0000   0.0000   0.0000   0.0000   0.0000   0.0000
     0.0000   0.0000   0.0000   0.0000   0.0000   0.0000   0.0000   0.0000
     0.0000   0.0000   0.0000   0.0000

          k = 0.1250 0.2500 0.2489 (  2594 PWs)   bands (ev):

   -44.8575 -22.0934 -22.0431 -22.0223 -14.3065  -6.2965  -5.7086  -5.5840
     0.2279   0.2713   0.6948   6.7428   7.1760   7.4792   7.8106   7.9999
     8.4677   9.2740   9.4304   9.6409  12.9048  13.0418  13.1921  15.0569
    15.9927  17.0231  17.4212  18.4801  19.2279  19.3654  20.7265  24.8492
    25.8555  26.0197  27.2680  27.7328  28.0228  29.1920  30.1555  30.4849
    30.8640  31.2313  31.9328  33.7357  34.2973  36.9701  37.7543  38.0252
    39.5079  40.2248  40.7206  40.9350  41.1860  41.5613  42.3929  43.3334
    43.5338  45.3241  45.7312  46.0016

     occupation numbers 
     1.0000   1.0000   1.0000   1.0000   1.0000   1.0000   1.0000   1.0000
     1.0000   1.0000   1.0000   1.0000   1.0000   1.0000   1.0000   1.0000
     1.0000   1.0000   1.0000   1.0000   0.0000   0.0000   0.0000   0.0000
     0.0000   0.0000   0.0000   0.0000   0.0000   0.0000   0.0000   0.0000
     0.0000   0.0000   0.0000   0.0000   0.0000   0.0000   0.0000   0.0000
     0.0000   0.0000   0.0000   0.0000   0.0000   0.0000   0.0000   0.0000
     0.0000   0.0000   0.0000   0.0000   0.0000   0.0000   0.0000   0.0000
     0.0000   0.0000   0.0000   0.0000

          k = 0.1250 0.2500 0.3733 (  2594 PWs)   bands (ev):

   -44.8571 -22.1125 -22.0421 -22.0216 -14.2733  -6.2511  -5.6699  -5.5644
     0.1918   0.3203   0.6362   6.3864   6.8517   7.2716   7.6223   7.8360
     8.5381   9.1558   9.3607   9.6609  12.9735  13.4597  13.5401  15.1119
    16.5974  17.5718  18.2157  18.7305  19.2286  19.5188  21.6261  24.4270
    25.1067  25.4769  25.8582  27.5721  27.9469  28.8088  29.7181  30.7028
    31.1570  31.7675  32.3992  34.2702  35.0806  35.4967  35.8831  37.9416
    38.4702  39.7242  40.3100  40.5638  41.6470  42.3356  42.7991  43.7500
    44.2869  44.5988  45.3507  45.8098

     occupation numbers 
     1.0000   1.0000   1.0000   1.0000   1.0000   1.0000   1.0000   1.0000
     1.0000   1.0000   1.0000   1.0000   1.0000   1.0000   1.0000   1.0000
     1.0000   1.0000   1.0000   1.0000   0.0000   0.0000   0.0000   0.0000
     0.0000   0.0000   0.0000   0.0000   0.0000   0.0000   0.0000   0.0000
     0.0000   0.0000   0.0000   0.0000   0.0000   0.0000   0.0000   0.0000
     0.0000   0.0000   0.0000   0.0000   0.0000   0.0000   0.0000   0.0000
     0.0000   0.0000   0.0000   0.0000   0.0000   0.0000   0.0000   0.0000
     0.0000   0.0000   0.0000   0.0000

          k = 0.1250 0.2500-0.4977 (  2584 PWs)   bands (ev):

   -44.8568 -22.1204 -22.0417 -22.0212 -14.2593  -6.2525  -5.6255  -5.5617
     0.1751   0.4045   0.5472   6.1908   6.7621   7.2073   7.5311   7.7912
     8.6178   9.1350   9.2695   9.6448  12.9930  13.6430  13.7031  15.1158
    16.8264  17.9167  18.4696  18.7254  19.4449  19.5994  22.8759  23.1124
    24.1519  25.3421  25.7769  27.7217  28.2589  28.3284  29.4825  30.7503
    31.3047  32.3184  33.4676  33.6178  34.5373  35.3784  35.9973  36.5576
    38.3431  39.9201  40.1532  40.5457  41.8895  42.5442  42.8360  43.7647
    44.3088  44.9428  45.2836  45.5283

     occupation numbers 
     1.0000   1.0000   1.0000   1.0000   1.0000   1.0000   1.0000   1.0000
     1.0000   1.0000   1.0000   1.0000   1.0000   1.0000   1.0000   1.0000
     1.0000   1.0000   1.0000   1.0000   0.0000   0.0000   0.0000   0.0000
     0.0000   0.0000   0.0000   0.0000   0.0000   0.0000   0.0000   0.0000
     0.0000   0.0000   0.0000   0.0000   0.0000   0.0000   0.0000   0.0000
     0.0000   0.0000   0.0000   0.0000   0.0000   0.0000   0.0000   0.0000
     0.0000   0.0000   0.0000   0.0000   0.0000   0.0000   0.0000   0.0000
     0.0000   0.0000   0.0000   0.0000

          k = 0.1250 0.3750 0.0000 (  2594 PWs)   bands (ev):

   -44.8577 -22.0657 -22.0644 -22.0226 -14.3110  -6.5395  -5.6695  -5.4603
     0.3709   0.4576   0.6137   6.5523   7.4849   7.6410   7.7511   8.1625
     8.5797   8.9321   9.3113   9.5286  12.3854  13.3498  13.3777  14.3843
    15.9211  17.0851  17.5381  18.6878  19.2551  19.7322  20.7344  24.1870
    25.2211  26.5348  26.9668  27.6944  28.3128  29.2667  30.1326  30.7014
    31.0443  31.4176  32.6572  34.5162  35.2695  35.7544  36.5085  37.7341
    37.8309  40.2981  41.0075  41.8180  42.0307  42.5133  43.0870  43.6519
    44.0527  44.7571  45.4922  45.8540

     occupation numbers 
     1.0000   1.0000   1.0000   1.0000   1.0000   1.0000   1.0000   1.0000
     1.0000   1.0000   1.0000   1.0000   1.0000   1.0000   1.0000   1.0000
     1.0000   1.0000   1.0000   1.0000   0.0000   0.0000   0.0000   0.0000
     0.0000   0.0000   0.0000   0.0000   0.0000   0.0000   0.0000   0.0000
     0.0000   0.0000   0.0000   0.0000   0.0000   0.0000   0.0000   0.0000
     0.0000   0.0000   0.0000   0.0000   0.0000   0.0000   0.0000   0.0000
     0.0000   0.0000   0.0000   0.0000   0.0000   0.0000   0.0000   0.0000
     0.0000   0.0000   0.0000   0.0000

          k = 0.1250 0.3750 0.1244 (  2598 PWs)   bands (ev):

   -44.8575 -22.0734 -22.0641 -22.0223 -14.2996  -6.4692  -5.6628  -5.4833
     0.2998   0.4080   0.6458   6.5188   7.3144   7.5759   7.6939   7.9539
     8.6723   9.0928   9.2825   9.4034  12.5918  13.3707  13.4071  14.7146
    16.0400  17.2389  17.6821  18.8572  19.2113  19.4709  21.0765  24.2743
    25.2098  26.1016  26.7540  27.5238  28.5207  29.5645  29.8927  30.4405
    30.9563  31.7456  32.3131  34.1673  35.1332  35.6664  35.9745  37.4410
    39.7253  40.2748  40.6469  41.1190  41.8211  42.3266  43.3538  43.4871
    44.3097  44.4502  44.8952  46.1729

     occupation numbers 
     1.0000   1.0000   1.0000   1.0000   1.0000   1.0000   1.0000   1.0000
     1.0000   1.0000   1.0000   1.0000   1.0000   1.0000   1.0000   1.0000
     1.0000   1.0000   1.0000   1.0000   0.0000   0.0000   0.0000   0.0000
     0.0000   0.0000   0.0000   0.0000   0.0000   0.0000   0.0000   0.0000
     0.0000   0.0000   0.0000   0.0000   0.0000   0.0000   0.0000   0.0000
     0.0000   0.0000   0.0000   0.0000   0.0000   0.0000   0.0000   0.0000
     0.0000   0.0000   0.0000   0.0000   0.0000   0.0000   0.0000   0.0000
     0.0000   0.0000   0.0000   0.0000

          k = 0.1250 0.3750 0.2489 (  2594 PWs)   bands (ev):

   -44.8570 -22.0924 -22.0630 -22.0215 -14.2717  -6.2921  -5.6646  -5.5246
     0.2099   0.2985   0.6366   6.4422   6.9068   7.2024   7.5801   7.8918
     8.4491   9.1461   9.3516   9.6686  13.0493  13.4103  13.5403  15.1427
    16.5159  17.5822  18.2398  18.6985  19.2490  19.5292  21.6201  24.4562
    25.1965  25.4912  25.8476  27.6550  27.8946  28.7837  29.7058  30.8000
    31.0793  31.7378  32.3923  34.2685  35.1370  35.4989  35.8921  37.9555
    38.4031  39.6969  40.2156  40.5824  41.6758  42.3074  42.8283  43.7958
    44.2987  44.5951  45.2687  45.7517

     occupation numbers 
     1.0000   1.0000   1.0000   1.0000   1.0000   1.0000   1.0000   1.0000
     1.0000   1.0000   1.0000   1.0000   1.0000   1.0000   1.0000   1.0000
     1.0000   1.0000   1.0000   1.0000   0.0000   0.0000   0.0000   0.0000
     0.0000   0.0000   0.0000   0.0000   0.0000   0.0000   0.0000   0.0000
     0.0000   0.0000   0.0000   0.0000   0.0000   0.0000   0.0000   0.0000
     0.0000   0.0000   0.0000   0.0000   0.0000   0.0000   0.0000   0.0000
     0.0000   0.0000   0.0000   0.0000   0.0000   0.0000   0.0000   0.0000
     0.0000   0.0000   0.0000   0.0000

          k = 0.1250 0.3750 0.3733 (  2587 PWs)   bands (ev):

   -44.8566 -22.1113 -22.0618 -22.0208 -14.2434  -6.1040  -5.6899  -5.5476
     0.1677   0.2187   0.5577   6.2932   6.5628   6.7879   7.5519   7.7357
     8.3883   9.1940   9.4542   9.9208  13.4272  13.5022  13.7598  15.2747
    17.1212  17.9210  18.3946  19.0590  19.2730  19.9330  22.2374  24.5019
    24.7973  25.0583  25.3514  25.7097  27.7891  28.3139  30.1183  31.0914
    31.4736  32.2157  32.6409  34.6276  34.8746  35.3985  35.6836  37.1734
    38.3398  38.9060  39.6632  40.5517  40.8276  41.7865  43.2353  43.2860
    44.1002  44.2316  45.4197  45.7121

     occupation numbers 
     1.0000   1.0000   1.0000   1.0000   1.0000   1.0000   1.0000   1.0000
     1.0000   1.0000   1.0000   1.0000   1.0000   1.0000   1.0000   1.0000
     1.0000   1.0000   1.0000   1.0000   0.0000   0.0000   0.0000   0.0000
     0.0000   0.0000   0.0000   0.0000   0.0000   0.0000   0.0000   0.0000
     0.0000   0.0000   0.0000   0.0000   0.0000   0.0000   0.0000   0.0000
     0.0000   0.0000   0.0000   0.0000   0.0000   0.0000   0.0000   0.0000
     0.0000   0.0000   0.0000   0.0000   0.0000   0.0000   0.0000   0.0000
     0.0000   0.0000   0.0000   0.0000

          k = 0.1250 0.3750-0.4977 (  2580 PWs)   bands (ev):

   -44.8563 -22.1191 -22.0614 -22.0205 -14.2316  -6.0256  -5.6932  -5.5630
     0.1294   0.2366   0.4971   6.1393   6.4607   6.6945   7.5334   7.6591
     8.3606   9.3473   9.4085   9.9901  13.4520  13.6714  13.8769  15.2924
    17.3671  18.0625  18.3274  19.1793  19.4261  20.3475  23.1284  23.4632
    24.3262  24.8775  24.9198  25.6204  27.8822  28.1086  30.1119  31.3702
    31.7162  32.5037  33.3244  33.6154  34.6825  35.2958  36.2970  37.1134
    37.5162  38.8008  39.3133  40.6653  41.2660  41.8257  42.3464  42.7915
    43.8864  44.6617  45.0030  45.4837

     occupation numbers 
     1.0000   1.0000   1.0000   1.0000   1.0000   1.0000   1.0000   1.0000
     1.0000   1.0000   1.0000   1.0000   1.0000   1.0000   1.0000   1.0000
     1.0000   1.0000   1.0000   1.0000   0.0000   0.0000   0.0000   0.0000
     0.0000   0.0000   0.0000   0.0000   0.0000   0.0000   0.0000   0.0000
     0.0000   0.0000   0.0000   0.0000   0.0000   0.0000   0.0000   0.0000
     0.0000   0.0000   0.0000   0.0000   0.0000   0.0000   0.0000   0.0000
     0.0000   0.0000   0.0000   0.0000   0.0000   0.0000   0.0000   0.0000
     0.0000   0.0000   0.0000   0.0000

          k = 0.1250-0.5000 0.0000 (  2600 PWs)   bands (ev):

   -44.8575 -22.0729 -22.0651 -22.0222 -14.2935  -6.5847  -5.6638  -5.3952
     0.4073   0.4871   0.6298   6.3314   7.4559   7.5548   7.5584   8.0835
     8.5466   8.9251   9.1818   9.4547  12.4032  13.5556  13.5941  14.3707
    16.1042  17.4040  18.0239  18.6570  19.4122  19.9011  22.0006  23.2904
    23.9146  26.3837  27.2152  27.7911  27.8841  29.0154  30.2201  30.6379
    31.5081  32.2767  32.6535  33.4830  34.7675  35.0696  36.6904  37.5254
    38.1578  40.5305  41.2233  41.3605  42.3049  42.4968  42.9046  43.7337
    44.0288  44.5631  45.6103  46.1142

     occupation numbers 
     1.0000   1.0000   1.0000   1.0000   1.0000   1.0000   1.0000   1.0000
     1.0000   1.0000   1.0000   1.0000   1.0000   1.0000   1.0000   1.0000
     1.0000   1.0000   1.0000   1.0000   0.0000   0.0000   0.0000   0.0000
     0.0000   0.0000   0.0000   0.0000   0.0000   0.0000   0.0000   0.0000
     0.0000   0.0000   0.0000   0.0000   0.0000   0.0000   0.0000   0.0000
     0.0000   0.0000   0.0000   0.0000   0.0000   0.0000   0.0000   0.0000
     0.0000   0.0000   0.0000   0.0000   0.0000   0.0000   0.0000   0.0000
     0.0000   0.0000   0.0000   0.0000

          k = 0.1250-0.5000 0.1244 (  2594 PWs)   bands (ev):

   -44.8573 -22.0730 -22.0724 -22.0219 -14.2829  -6.5079  -5.6532  -5.4220
     0.3029   0.5489   0.5503   6.3109   7.3144   7.4264   7.5474   7.8956
     8.7419   9.0417   9.1795   9.2830  12.6101  13.5706  13.6147  14.7026
    16.2298  17.5604  18.0825  18.9986  19.3187  19.5692  22.3106  23.2318
    24.0113  26.0046  26.7352  27.9057  28.1080  29.3774  29.8956  30.2152
    31.2562  32.6347  33.1170  33.2412  34.2784  35.3375  35.9467  36.9667
    39.6022  39.7782  40.9868  41.8028  41.9914  42.1196  42.8253  44.1616
    44.2853  45.0196  45.0601  45.5885

     occupation numbers 
     1.0000   1.0000   1.0000   1.0000   1.0000   1.0000   1.0000   1.0000
     1.0000   1.0000   1.0000   1.0000   1.0000   1.0000   1.0000   1.0000
     1.0000   1.0000   1.0000   1.0000   0.0000   0.0000   0.0000   0.0000
     0.0000   0.0000   0.0000   0.0000   0.0000   0.0000   0.0000   0.0000
     0.0000   0.0000   0.0000   0.0000   0.0000   0.0000   0.0000   0.0000
     0.0000   0.0000   0.0000   0.0000   0.0000   0.0000   0.0000   0.0000
     0.0000   0.0000   0.0000   0.0000   0.0000   0.0000   0.0000   0.0000
     0.0000   0.0000   0.0000   0.0000

          k = 0.1250-0.5000 0.2489 (  2584 PWs)   bands (ev):

   -44.8568 -22.0919 -22.0712 -22.0212 -14.2571  -6.3064  -5.6390  -5.4884
     0.1960   0.3673   0.5591   6.2680   6.8357   7.1043   7.4731   7.8683
     8.4873   9.1915   9.2037   9.6547  13.0687  13.6011  13.7120  15.1519
    16.7079  17.9278  18.5319  18.6639  19.4408  19.6442  22.8747  23.1454
    24.1896  25.3899  25.7954  27.8348  28.1924  28.3386  29.4507  30.7924
    31.2184  32.3872  33.5093  33.5394  34.5736  35.5469  35.8208  36.5836
    38.2759  39.9090  39.9517  40.6168  42.0014  42.5072  42.8902  43.6835
    44.3425  45.0436  45.0618  45.5684

     occupation numbers 
     1.0000   1.0000   1.0000   1.0000   1.0000   1.0000   1.0000   1.0000
     1.0000   1.0000   1.0000   1.0000   1.0000   1.0000   1.0000   1.0000
     1.0000   1.0000   1.0000   1.0000   0.0000   0.0000   0.0000   0.0000
     0.0000   0.0000   0.0000   0.0000   0.0000   0.0000   0.0000   0.0000
     0.0000   0.0000   0.0000   0.0000   0.0000   0.0000   0.0000   0.0000
     0.0000   0.0000   0.0000   0.0000   0.0000   0.0000   0.0000   0.0000
     0.0000   0.0000   0.0000   0.0000   0.0000   0.0000   0.0000   0.0000
     0.0000   0.0000   0.0000   0.0000

          k = 0.1250-0.5000 0.3733 (  2582 PWs)   bands (ev):

   -44.8563 -22.1108 -22.0699 -22.0205 -14.2309  -6.0595  -5.6633  -5.5573
     0.1623   0.1967   0.5032   6.1765   6.5276   6.5997   7.4685   7.7420
     8.3167   9.3597   9.3920   9.9928  13.5024  13.6288  13.8825  15.3010
    17.3290  18.0623  18.3265  19.1953  19.4023  20.3866  23.2018  23.3900
    24.3322  24.8950  24.9297  25.5966  27.8834  28.1367  30.1264  31.4729
    31.5390  32.5436  33.2811  33.6654  34.8978  35.0899  36.3514  37.2170
    37.3247  38.8923  39.1975  40.6825  41.2804  41.8976  42.2290  42.8484
    43.7683  44.7103  45.1278  45.3916

     occupation numbers 
     1.0000   1.0000   1.0000   1.0000   1.0000   1.0000   1.0000   1.0000
     1.0000   1.0000   1.0000   1.0000   1.0000   1.0000   1.0000   1.0000
     1.0000   1.0000   1.0000   1.0000   0.0000   0.0000   0.0000   0.0000
     0.0000   0.0000   0.0000   0.0000   0.0000   0.0000   0.0000   0.0000
     0.0000   0.0000   0.0000   0.0000   0.0000   0.0000   0.0000   0.0000
     0.0000   0.0000   0.0000   0.0000   0.0000   0.0000   0.0000   0.0000
     0.0000   0.0000   0.0000   0.0000   0.0000   0.0000   0.0000   0.0000
     0.0000   0.0000   0.0000   0.0000

          k = 0.1250-0.5000-0.4977 (  2584 PWs)   bands (ev):

   -44.8562 -22.1186 -22.0694 -22.0202 -14.2200  -5.9088  -5.7197  -5.5865
     0.1298   0.1704   0.4596   6.0617   6.4307   6.4620   7.4696   7.6635
     8.2449   9.4685   9.4924  10.0938  13.6397  13.6811  13.9769  15.3188
    17.5920  17.8389  18.5329  19.3860  19.4040  21.0345  23.5038  23.6165
    24.0007  24.4380  24.6259  24.6418  27.7643  28.1321  30.4653  31.6214
    31.6321  33.0018  33.3908  33.5320  34.2124  35.3130  36.4256  37.2832
    37.3046  39.0504  39.0692  40.5642  40.7513  41.4641  42.1670  42.4112
    42.7443  45.0830  45.1964  45.3552

     occupation numbers 
     1.0000   1.0000   1.0000   1.0000   1.0000   1.0000   1.0000   1.0000
     1.0000   1.0000   1.0000   1.0000   1.0000   1.0000   1.0000   1.0000
     1.0000   1.0000   1.0000   1.0000   0.0000   0.0000   0.0000   0.0000
     0.0000   0.0000   0.0000   0.0000   0.0000   0.0000   0.0000   0.0000
     0.0000   0.0000   0.0000   0.0000   0.0000   0.0000   0.0000   0.0000
     0.0000   0.0000   0.0000   0.0000   0.0000   0.0000   0.0000   0.0000
     0.0000   0.0000   0.0000   0.0000   0.0000   0.0000   0.0000   0.0000
     0.0000   0.0000   0.0000   0.0000

          k = 0.2500 0.2500 0.0000 (  2616 PWs)   bands (ev):

   -44.8577 -22.0655 -22.0439 -22.0430 -14.3172  -6.3956  -5.6340  -5.6150
     0.2615   0.4546   0.5685   6.8377   7.3027   7.5826   7.7872   8.1420
     8.4591   9.1434   9.3993   9.7807  12.7439  12.9503  13.1321  14.6438
    15.9686  16.8749  17.3561  18.7031  19.1932  19.3544  20.3164  24.9245
    25.6675  26.1981  27.6749  27.8206  27.9778  29.0370  30.0868  30.5502
    31.1148  31.3349  32.1755  33.9828  36.2577  36.7058  36.7935  37.8000
    37.9005  39.8054  40.5164  40.9999  41.6834  42.6693  43.0681  44.0474
    44.4030  45.0934  45.4573  45.9308

     occupation numbers 
     1.0000   1.0000   1.0000   1.0000   1.0000   1.0000   1.0000   1.0000
     1.0000   1.0000   1.0000   1.0000   1.0000   1.0000   1.0000   1.0000
     1.0000   1.0000   1.0000   1.0000   0.0000   0.0000   0.0000   0.0000
     0.0000   0.0000   0.0000   0.0000   0.0000   0.0000   0.0000   0.0000
     0.0000   0.0000   0.0000   0.0000   0.0000   0.0000   0.0000   0.0000
     0.0000   0.0000   0.0000   0.0000   0.0000   0.0000   0.0000   0.0000
     0.0000   0.0000   0.0000   0.0000   0.0000   0.0000   0.0000   0.0000
     0.0000   0.0000   0.0000   0.0000

          k = 0.2500 0.2500 0.1244 (  2600 PWs)   bands (ev):

   -44.8575 -22.0734 -22.0435 -22.0427 -14.3051  -6.3338  -5.6331  -5.6182
     0.2178   0.2756   0.6929   6.7461   7.2904   7.4636   7.8310   8.0216
     8.2871   9.3058   9.3439   9.7292  12.8949  13.0319  13.1675  15.0872
    15.9623  17.0624  17.3927  18.4778  19.2367  19.3739  20.7112  24.8896
    25.9271  25.9988  27.2756  27.7544  28.0791  29.2346  30.0345  30.6832
    30.9672  30.9796  31.9092  33.6308  34.3624  36.9894  37.7720  38.0877
    39.4984  40.2181  40.7107  40.9565  40.9702  41.6054  42.3409  43.2075
    43.5429  45.4490  45.8118  45.8914

     occupation numbers 
     1.0000   1.0000   1.0000   1.0000   1.0000   1.0000   1.0000   1.0000
     1.0000   1.0000   1.0000   1.0000   1.0000   1.0000   1.0000   1.0000
     1.0000   1.0000   1.0000   1.0000   0.0000   0.0000   0.0000   0.0000
     0.0000   0.0000   0.0000   0.0000   0.0000   0.0000   0.0000   0.0000
     0.0000   0.0000   0.0000   0.0000   0.0000   0.0000   0.0000   0.0000
     0.0000   0.0000   0.0000   0.0000   0.0000   0.0000   0.0000   0.0000
     0.0000   0.0000   0.0000   0.0000   0.0000   0.0000   0.0000   0.0000
     0.0000   0.0000   0.0000   0.0000

          k = 0.2500 0.2500 0.2489 (  2590 PWs)   bands (ev):

   -44.8570 -22.0925 -22.0425 -22.0418 -14.2756  -6.1929  -5.6656  -5.5793
     0.1117   0.1292   0.6988   6.5844   7.1637   7.2612   7.7753   7.8654
     7.8759   9.4713   9.4835   9.6632  13.2024  13.2760  13.2963  15.9421
    15.9778  17.5726  17.5938  18.3003  19.2880  19.2947  21.4758  24.7512
    25.6109  26.6157  26.6496  27.6669  27.6883  28.6891  29.8846  30.3580
    30.4594  31.4381  31.5489  32.6875  35.1109  37.5248  37.5524  38.3003
    38.7861  38.8340  40.7666  40.8830  40.8982  41.8357  41.9439  42.1582
    44.8305  45.6498  45.7489  45.8703

     occupation numbers 
     1.0000   1.0000   1.0000   1.0000   1.0000   1.0000   1.0000   1.0000
     1.0000   1.0000   1.0000   1.0000   1.0000   1.0000   1.0000   1.0000
     1.0000   1.0000   1.0000   1.0000   0.0000   0.0000   0.0000   0.0000
     0.0000   0.0000   0.0000   0.0000   0.0000   0.0000   0.0000   0.0000
     0.0000   0.0000   0.0000   0.0000   0.0000   0.0000   0.0000   0.0000
     0.0000   0.0000   0.0000   0.0000   0.0000   0.0000   0.0000   0.0000
     0.0000   0.0000   0.0000   0.0000   0.0000   0.0000   0.0000   0.0000
     0.0000   0.0000   0.0000   0.0000

[...]
     0.0000   0.0000   0.0000   0.0000   0.0000   0.0000   0.0000   0.0000
     0.0000   0.0000   0.0000   0.0000   0.0000   0.0000   0.0000   0.0000
     0.0000   0.0000   0.0000   0.0000

          k = 0.3750 0.3750 0.1244 (  2588 PWs)   bands (ev):

   -44.8565 -22.0718 -22.0619 -22.0616 -14.2407  -6.1779  -5.5962  -5.5593
     0.1574   0.2058   0.5608   6.2992   6.7250   6.7308   7.6191   7.7180
     8.2938   9.1195   9.3285  10.0356  13.4292  13.5048  13.7498  15.2175
    17.1164  17.9364  18.4270  19.0374  19.2847  19.9491  22.2331  24.5299
    24.8240  25.1122  25.3644  25.7255  27.8136  28.3488  30.0957  31.1039
    31.5285  32.2135  32.6353  34.5647  34.9854  35.5525  35.5645  37.1289
    38.3068  38.8583  39.5790  40.3945  40.8565  41.7640  43.2339  43.2698
    44.1665  44.1939  45.1946  45.8192

     occupation numbers 
     1.0000   1.0000   1.0000   1.0000   1.0000   1.0000   1.0000   1.0000
     1.0000   1.0000   1.0000   1.0000   1.0000   1.0000   1.0000   1.0000
     1.0000   1.0000   1.0000   1.0000   0.0000   0.0000   0.0000   0.0000
     0.0000   0.0000   0.0000   0.0000   0.0000   0.0000   0.0000   0.0000
     0.0000   0.0000   0.0000   0.0000   0.0000   0.0000   0.0000   0.0000
     0.0000   0.0000   0.0000   0.0000   0.0000   0.0000   0.0000   0.0000
     0.0000   0.0000   0.0000   0.0000   0.0000   0.0000   0.0000   0.0000
     0.0000   0.0000   0.0000   0.0000

          k = 0.3750 0.3750 0.2489 (  2575 PWs)   bands (ev):

   -44.8560 -22.0906 -22.0610 -22.0607 -14.2163  -5.9882  -5.5451  -5.5391
    -0.0735  -0.0520   0.3481   6.3139   6.7319   7.0038   7.3341   7.7543
     7.8280   9.4544   9.5933  10.0317  13.6738  13.7022  13.8335  16.1612
    17.0860  17.9114  18.2285  18.3050  19.0528  19.9010  22.6705  24.6635
    25.2870  25.3384  26.0676  26.3429  27.6438  28.7789  29.1900  29.6366
    30.5361  32.2618  32.7133  33.1273  35.3383  35.6821  36.3890  37.1423
    37.4145  38.4107  40.0740  40.1737  41.4522  41.6703  42.4075  43.0135
    44.3293  44.4126  44.9225  45.0525

     occupation numbers 
     1.0000   1.0000   1.0000   1.0000   1.0000   1.0000   1.0000   1.0000
     1.0000   1.0000   1.0000   1.0000   1.0000   1.0000   1.0000   1.0000
     1.0000   1.0000   1.0000   1.0000   0.0000   0.0000   0.0000   0.0000
     0.0000   0.0000   0.0000   0.0000   0.0000   0.0000   0.0000   0.0000
     0.0000   0.0000   0.0000   0.0000   0.0000   0.0000   0.0000   0.0000
     0.0000   0.0000   0.0000   0.0000   0.0000   0.0000   0.0000   0.0000
     0.0000   0.0000   0.0000   0.0000   0.0000   0.0000   0.0000   0.0000
     0.0000   0.0000   0.0000   0.0000

          k = 0.3750 0.3750 0.3733 (  2575 PWs)   bands (ev):

   -44.8555 -22.1093 -22.0600 -22.0598 -14.1917  -5.7712  -5.5509  -5.4792
    -0.2554  -0.2359   0.0540   6.2337   6.6917   6.7350   7.3666   7.7748
     7.8086   9.8114   9.8507  10.0467  13.9051  13.9342  13.9482  16.8722
    17.0008  17.6740  17.7615  17.8971  19.7831  19.7921  22.7376  24.9844
    25.4485  25.6917  25.7452  27.1699  27.7355  27.8177  29.1693  29.4000
    29.6207  32.5253  32.8882  32.9357  34.5895  34.6246  36.3082  37.9080
    38.2519  38.3564  39.5663  40.5107  40.5147  41.7665  42.3861  42.3951
    44.1540  44.2166  44.5853  44.7233

     occupation numbers 
     1.0000   1.0000   1.0000   1.0000   1.0000   1.0000   1.0000   1.0000
     1.0000   1.0000   1.0000   1.0000   1.0000   1.0000   1.0000   1.0000
     1.0000   1.0000   1.0000   1.0000   0.0000   0.0000   0.0000   0.0000
     0.0000   0.0000   0.0000   0.0000   0.0000   0.0000   0.0000   0.0000
     0.0000   0.0000   0.0000   0.0000   0.0000   0.0000   0.0000   0.0000
     0.0000   0.0000   0.0000   0.0000   0.0000   0.0000   0.0000   0.0000
     0.0000   0.0000   0.0000   0.0000   0.0000   0.0000   0.0000   0.0000
     0.0000   0.0000   0.0000   0.0000

          k = 0.3750 0.3750-0.4977 (  2566 PWs)   bands (ev):

   -44.8553 -22.1171 -22.0596 -22.0594 -14.1814  -5.6295  -5.6028  -5.4536
    -0.3382  -0.2367  -0.1248   6.0851   6.5984   6.7367   7.4123   7.7797
     7.8675   9.9527   9.9539  10.0591  13.9501  14.0481  14.0573  16.9208
    17.0092  17.5519  17.5906  17.9119  19.7401  20.3112  22.8254  24.5579
    25.1959  25.7233  25.8962  27.0272  27.9350  28.4474  28.8284  29.3915
    29.4300  32.4866  32.6702  33.3469  34.0583  34.5667  35.8952  37.8690
    38.4714  38.9297  39.4882  39.5905  41.3816  41.7315  42.0185  43.0237
    43.2601  43.7942  44.5992  44.7454

     occupation numbers 
     1.0000   1.0000   1.0000   1.0000   1.0000   1.0000   1.0000   1.0000
     1.0000   1.0000   1.0000   1.0000   1.0000   1.0000   1.0000   1.0000
     1.0000   1.0000   1.0000   1.0000   0.0000   0.0000   0.0000   0.0000
     0.0000   0.0000   0.0000   0.0000   0.0000   0.0000   0.0000   0.0000
     0.0000   0.0000   0.0000   0.0000   0.0000   0.0000   0.0000   0.0000
     0.0000   0.0000   0.0000   0.0000   0.0000   0.0000   0.0000   0.0000
     0.0000   0.0000   0.0000   0.0000   0.0000   0.0000   0.0000   0.0000
     0.0000   0.0000   0.0000   0.0000

          k = 0.3750-0.5000 0.0000 (  2594 PWs)   bands (ev):

   -44.8565 -22.0703 -22.0638 -22.0615 -14.2379  -6.2023  -5.6109  -5.5747
     0.2629   0.3012   0.6287   6.1625   6.3926   6.6476   7.5308   7.6435
     8.6621   9.1234   9.1923  10.1066  13.3802  13.5995  13.8391  14.7502
    17.3537  18.1584  18.2257  19.7989  20.0178  20.1939  23.0310  23.0762
    24.0539  24.5791  24.6847  25.6749  27.7918  27.9827  30.3375  32.0282
    32.4287  32.5576  33.0483  34.2577  34.5831  35.8075  36.0661  37.7956
    37.8547  38.0786  39.9686  40.3182  40.7600  40.9938  41.5669  42.4442
    43.5021  44.8548  45.7454  46.2727

     occupation numbers 
     1.0000   1.0000   1.0000   1.0000   1.0000   1.0000   1.0000   1.0000
     1.0000   1.0000   1.0000   1.0000   1.0000   1.0000   1.0000   1.0000
     1.0000   1.0000   1.0000   1.0000   0.0000   0.0000   0.0000   0.0000
     0.0000   0.0000   0.0000   0.0000   0.0000   0.0000   0.0000   0.0000
     0.0000   0.0000   0.0000   0.0000   0.0000   0.0000   0.0000   0.0000
     0.0000   0.0000   0.0000   0.0000   0.0000   0.0000   0.0000   0.0000
     0.0000   0.0000   0.0000   0.0000   0.0000   0.0000   0.0000   0.0000
     0.0000   0.0000   0.0000   0.0000

          k = 0.3750-0.5000 0.1244 (  2586 PWs)   bands (ev):

   -44.8563 -22.0715 -22.0699 -22.0613 -14.2282  -6.1266  -5.5883  -5.5572
     0.1336   0.1988   0.5075   6.1664   6.5946   6.6515   7.5700   7.6843
     8.2659   9.2585   9.2595  10.1089  13.4796  13.6697  13.8718  15.2140
    17.3491  18.0521  18.3849  19.1832  19.4129  20.3881  23.2155  23.3928
    24.3470  24.9334  24.9384  25.6230  27.9201  28.1533  30.1409  31.4089
    31.5914  32.5975  33.4047  33.6576  34.8813  35.0815  36.3339  37.2281
    37.2730  38.7837  39.1229  40.5998  41.2023  41.8982  42.3120  42.7684
    43.9195  44.6803  45.0560  45.4482

     occupation numbers 
     1.0000   1.0000   1.0000   1.0000   1.0000   1.0000   1.0000   1.0000
     1.0000   1.0000   1.0000   1.0000   1.0000   1.0000   1.0000   1.0000
     1.0000   1.0000   1.0000   1.0000   0.0000   0.0000   0.0000   0.0000
     0.0000   0.0000   0.0000   0.0000   0.0000   0.0000   0.0000   0.0000
     0.0000   0.0000   0.0000   0.0000   0.0000   0.0000   0.0000   0.0000
     0.0000   0.0000   0.0000   0.0000   0.0000   0.0000   0.0000   0.0000
     0.0000   0.0000   0.0000   0.0000   0.0000   0.0000   0.0000   0.0000
     0.0000   0.0000   0.0000   0.0000

          k = 0.3750-0.5000 0.2489 (  2584 PWs)   bands (ev):

   -44.8558 -22.0903 -22.0689 -22.0604 -14.2047  -5.9338  -5.5360  -5.5146
    -0.1315  -0.0392   0.2102   6.1686   6.6600   7.0496   7.2542   7.7530
     7.8238   9.5019   9.6052  10.1202  13.7187  13.8494  13.9534  16.1470
    17.3258  17.8369  18.2126  18.3604  19.0106  20.3739  23.1251  23.9386
    24.8519  25.3660  25.9475  26.2080  28.0290  28.2992  29.5424  29.6894
    30.3705  32.7172  33.2943  33.7057  34.0218  34.8825  36.3529  36.9530
    37.4938  39.1117  39.1432  40.3009  41.2078  42.3077  42.3282  43.2122
    43.5966  44.2398  44.8710  44.8990

     occupation numbers 
     1.0000   1.0000   1.0000   1.0000   1.0000   1.0000   1.0000   1.0000
     1.0000   1.0000   1.0000   1.0000   1.0000   1.0000   1.0000   1.0000
     1.0000   1.0000   1.0000   1.0000   0.0000   0.0000   0.0000   0.0000
     0.0000   0.0000   0.0000   0.0000   0.0000   0.0000   0.0000   0.0000
     0.0000   0.0000   0.0000   0.0000   0.0000   0.0000   0.0000   0.0000
     0.0000   0.0000   0.0000   0.0000   0.0000   0.0000   0.0000   0.0000
     0.0000   0.0000   0.0000   0.0000   0.0000   0.0000   0.0000   0.0000
     0.0000   0.0000   0.0000   0.0000

          k = 0.3750-0.5000 0.3733 (  2568 PWs)   bands (ev):

   -44.8553 -22.1089 -22.0680 -22.0595 -14.1809  -5.7144  -5.4984  -5.4714
    -0.3246  -0.2663  -0.1117   6.1077   6.6028   6.7165   7.4530   7.7940
     7.8118   9.8421   9.9645  10.1408  13.9729  14.0330  14.0614  16.7696
    17.2091  17.5607  17.5918  17.8240  19.7326  20.3462  22.8741  24.4698
    25.2128  25.7140  25.9433  27.0410  27.8916  28.6351  28.6644  29.3053
    29.5120  32.5018  32.7441  33.2685  34.1241  34.5652  35.8587  37.8749
    38.4503  38.8666  39.4996  39.6764  41.2643  41.7368  42.0341  42.9937
    43.2566  43.9122  44.5216  44.8753

     occupation numbers 
     1.0000   1.0000   1.0000   1.0000   1.0000   1.0000   1.0000   1.0000
     1.0000   1.0000   1.0000   1.0000   1.0000   1.0000   1.0000   1.0000
     1.0000   1.0000   1.0000   1.0000   0.0000   0.0000   0.0000   0.0000
     0.0000   0.0000   0.0000   0.0000   0.0000   0.0000   0.0000   0.0000
     0.0000   0.0000   0.0000   0.0000   0.0000   0.0000   0.0000   0.0000
     0.0000   0.0000   0.0000   0.0000   0.0000   0.0000   0.0000   0.0000
     0.0000   0.0000   0.0000   0.0000   0.0000   0.0000   0.0000   0.0000
     0.0000   0.0000   0.0000   0.0000

          k = 0.3750-0.5000-0.4977 (  2548 PWs)   bands (ev):

   -44.8551 -22.1166 -22.0676 -22.0591 -14.1709  -5.5923  -5.5100  -5.4534
    -0.3577  -0.3430  -0.2954   6.0024   6.4679   6.6958   7.5863   7.7813
     7.8573  10.0083  10.1099  10.1552  14.0723  14.0887  14.1576  16.7612
    17.1277  17.3024  17.4783  17.9104  19.9703  20.5881  22.8326  24.7255
    24.8352  25.3391  26.0940  27.6089  27.7354  28.4548  29.1453  29.3348
    29.4578  31.4838  32.6375  32.7342  35.0872  35.1348  35.1638  37.6777
    38.5441  38.9878  39.5169  39.5568  41.2901  41.7391  42.6173  43.0784
    43.1050  43.6032  44.0064  44.3860

     occupation numbers 
     1.0000   1.0000   1.0000   1.0000   1.0000   1.0000   1.0000   1.0000
     1.0000   1.0000   1.0000   1.0000   1.0000   1.0000   1.0000   1.0000
     1.0000   1.0000   1.0000   1.0000   0.0000   0.0000   0.0000   0.0000
     0.0000   0.0000   0.0000   0.0000   0.0000   0.0000   0.0000   0.0000
     0.0000   0.0000   0.0000   0.0000   0.0000   0.0000   0.0000   0.0000
     0.0000   0.0000   0.0000   0.0000   0.0000   0.0000   0.0000   0.0000
     0.0000   0.0000   0.0000   0.0000   0.0000   0.0000   0.0000   0.0000
     0.0000   0.0000   0.0000   0.0000

          k =-0.5000-0.5000 0.0000 (  2592 PWs)   bands (ev):

   -44.8563 -22.0697 -22.0697 -22.0633 -14.2262  -6.1073  -5.6125  -5.6125
     0.2399   0.2399   0.6595   6.0568   6.2278   6.5033   7.5291   7.5291
     8.5931   9.2647   9.2647  10.2016  13.6023  13.6023  13.9403  14.7403
    17.6052  17.9511  18.4216  20.0476  20.0476  21.1690  23.2305  23.2305
    24.0724  24.0724  24.1541  24.2909  27.7611  28.0228  30.9779  32.1382
    32.1382  32.7234  33.4903  33.4904  34.4951  36.2734  37.0734  37.6688
    37.6688  38.0230  40.0219  40.0219  40.6974  40.6974  40.9653  41.0315
    42.7130  44.8367  46.0495  46.1065

     occupation numbers 
     1.0000   1.0000   1.0000   1.0000   1.0000   1.0000   1.0000   1.0000
     1.0000   1.0000   1.0000   1.0000   1.0000   1.0000   1.0000   1.0000
     1.0000   1.0000   1.0000   1.0000   0.0000   0.0000   0.0000   0.0000
     0.0000   0.0000   0.0000   0.0000   0.0000   0.0000   0.0000   0.0000
     0.0000   0.0000   0.0000   0.0000   0.0000   0.0000   0.0000   0.0000
     0.0000   0.0000   0.0000   0.0000   0.0000   0.0000   0.0000   0.0000
     0.0000   0.0000   0.0000   0.0000   0.0000   0.0000   0.0000   0.0000
     0.0000   0.0000   0.0000   0.0000

          k =-0.5000-0.5000 0.1244 (  2580 PWs)   bands (ev):

   -44.8561 -22.0711 -22.0694 -22.0694 -14.2167  -6.0323  -5.5866  -5.5866
     0.1327   0.1327   0.4689   6.0624   6.5009   6.5059   7.6025   7.6026
     8.1666   9.3506   9.3506  10.2138  13.6812  13.6812  13.9737  15.2059
    17.6047  17.8313  18.6004  19.3871  19.3871  21.0686  23.6296  23.6296
    23.8680  24.4973  24.6334  24.6334  27.8349  28.1651  30.5296  31.5626
    31.5626  33.0671  33.6346  33.6347  34.1000  35.2885  36.4510  37.2285
    37.2285  38.9650  38.9650  40.3217  40.6666  41.5414  42.2812  42.2812
    43.0081  45.1857  45.1857  45.2895

     occupation numbers 
     1.0000   1.0000   1.0000   1.0000   1.0000   1.0000   1.0000   1.0000
     1.0000   1.0000   1.0000   1.0000   1.0000   1.0000   1.0000   1.0000
     1.0000   1.0000   1.0000   1.0000   0.0000   0.0000   0.0000   0.0000
     0.0000   0.0000   0.0000   0.0000   0.0000   0.0000   0.0000   0.0000
     0.0000   0.0000   0.0000   0.0000   0.0000   0.0000   0.0000   0.0000
     0.0000   0.0000   0.0000   0.0000   0.0000   0.0000   0.0000   0.0000
     0.0000   0.0000   0.0000   0.0000   0.0000   0.0000   0.0000   0.0000
     0.0000   0.0000   0.0000   0.0000

          k =-0.5000-0.5000 0.2489 (  2560 PWs)   bands (ev):

   -44.8556 -22.0899 -22.0684 -22.0684 -14.1936  -5.8447  -5.5218  -5.5218
    -0.1171  -0.1171   0.0641   6.0652   6.5119   7.1055   7.3098   7.7265
     7.7265   9.6240   9.6240  10.2433  13.8787  13.8787  14.0572  16.1177
    17.6037  17.6229  18.2394  18.2394  19.1436  20.8371  23.3064  24.1759
    24.1760  24.9516  26.0885  26.0885  27.7779  28.0578  29.7969  30.3904
    30.3904  31.9311  33.9372  33.9372  33.9809  35.2013  35.2013  36.9758
    37.0351  39.2082  39.8560  39.8560  41.3181  42.5202  42.5202  42.6023
    43.0984  44.1403  44.3596  44.3596

     occupation numbers 
     1.0000   1.0000   1.0000   1.0000   1.0000   1.0000   1.0000   1.0000
     1.0000   1.0000   1.0000   1.0000   1.0000   1.0000   1.0000   1.0000
     1.0000   1.0000   1.0000   1.0000   0.0000   0.0000   0.0000   0.0000
     0.0000   0.0000   0.0000   0.0000   0.0000   0.0000   0.0000   0.0000
     0.0000   0.0000   0.0000   0.0000   0.0000   0.0000   0.0000   0.0000
     0.0000   0.0000   0.0000   0.0000   0.0000   0.0000   0.0000   0.0000
     0.0000   0.0000   0.0000   0.0000   0.0000   0.0000   0.0000   0.0000
     0.0000   0.0000   0.0000   0.0000

          k =-0.5000-0.5000 0.3733 (  2552 PWs)   bands (ev):

   -44.8551 -22.1085 -22.0675 -22.0675 -14.1703  -5.6472  -5.4534  -5.4534
    -0.3569  -0.3569  -0.2855   6.0099   6.5177   6.6424   7.6547   7.7895
     7.7895   9.9870   9.9870  10.2730  14.0948  14.0948  14.1436  16.6497
    17.2995  17.2995  17.6026  17.6979  19.9679  20.6185  22.8756  24.7350
    24.7351  25.3434  26.1496  27.7021  27.7021  28.3646  29.2736  29.3366
    29.3366  31.5654  32.6552  32.6552  35.1041  35.1645  35.1645  37.7271
    38.4261  39.1217  39.4903  39.4903  41.1945  41.7444  42.6135  43.0346
    43.0346  43.8739  44.1443  44.1443

     occupation numbers 
     1.0000   1.0000   1.0000   1.0000   1.0000   1.0000   1.0000   1.0000
     1.0000   1.0000   1.0000   1.0000   1.0000   1.0000   1.0000   1.0000
     1.0000   1.0000   1.0000   1.0000   0.0000   0.0000   0.0000   0.0000
     0.0000   0.0000   0.0000   0.0000   0.0000   0.0000   0.0000   0.0000
     0.0000   0.0000   0.0000   0.0000   0.0000   0.0000   0.0000   0.0000
     0.0000   0.0000   0.0000   0.0000   0.0000   0.0000   0.0000   0.0000
     0.0000   0.0000   0.0000   0.0000   0.0000   0.0000   0.0000   0.0000
     0.0000   0.0000   0.0000   0.0000

          k =-0.5000-0.5000-0.4977 (  2520 PWs)   bands (ev):

   -44.8549 -22.1162 -22.0672 -22.0671 -14.1606  -5.5620  -5.4239  -5.4239
    -0.4539  -0.4539  -0.4184   5.9234   6.4538   6.5202   7.8027   7.8027
     7.8700  10.1635  10.1635  10.2856  14.1807  14.1952  14.1952  16.7048
    16.9259  16.9259  17.6023  17.8789  20.4892  20.5313  22.7642  25.0154
    25.0154  25.1285  25.4872  28.5236  28.5258  28.5258  29.0459  29.0459
    29.0902  31.5450  31.5451  31.6356  35.6837  35.6837  35.6927  37.8085
    38.7349  38.7349  38.7512  40.1402  40.5294  41.8697  41.8887  43.9166
    43.9214  43.9214  44.2066  44.2067

     occupation numbers 
     1.0000   1.0000   1.0000   1.0000   1.0000   1.0000   1.0000   1.0000
     1.0000   1.0000   1.0000   1.0000   1.0000   1.0000   1.0000   1.0000
     1.0000   1.0000   1.0000   1.0000   0.0000   0.0000   0.0000   0.0000
     0.0000   0.0000   0.0000   0.0000   0.0000   0.0000   0.0000   0.0000
     0.0000   0.0000   0.0000   0.0000   0.0000   0.0000   0.0000   0.0000
     0.0000   0.0000   0.0000   0.0000   0.0000   0.0000   0.0000   0.0000
     0.0000   0.0000   0.0000   0.0000   0.0000   0.0000   0.0000   0.0000
     0.0000   0.0000   0.0000   0.0000

     highest occupied, lowest unoccupied level (ev):    10.2856   11.8596

     Writing output data file bto.save
 
     init_run     :      0.03s CPU      0.15s WALL (       1 calls)
     electrons    :      4.36s CPU      4.48s WALL (       1 calls)

     Called by init_run:
     wfcinit      :      0.00s CPU      0.09s WALL (       1 calls)
     wfcinit:atom :      0.00s CPU      0.00s WALL (      10 calls)
     wfcinit:wfcr :      0.13s CPU      0.14s WALL (      10 calls)
     potinit      :      0.01s CPU      0.04s WALL (       1 calls)

     Called by electrons:
     c_bands      :      4.35s CPU      4.47s WALL (       1 calls)
     v_of_rho     :      0.00s CPU      0.00s WALL (       1 calls)
     v_h          :      0.00s CPU      0.00s WALL (       1 calls)
     v_xc         :      0.00s CPU      0.00s WALL (       1 calls)

     Called by c_bands:
     init_us_2    :      0.00s CPU      0.00s WALL (      10 calls)
     cegterg      :      4.00s CPU      4.07s WALL (      10 calls)

     Called by sum_band:

     Called by *egterg:
     h_psi        :      0.90s CPU      0.93s WALL (     180 calls)
     g_psi        :      0.00s CPU      0.00s WALL (     160 calls)
     cdiaghg      :      2.97s CPU      2.99s WALL (     170 calls)
     cegterg:over :      0.10s CPU      0.11s WALL (     160 calls)
     cegterg:upda :      0.07s CPU      0.08s WALL (     160 calls)
     cegterg:last :      0.04s CPU      0.04s WALL (      31 calls)
     cdiaghg:chol :      0.09s CPU      0.09s WALL (     170 calls)
     cdiaghg:inve :      0.02s CPU      0.02s WALL (     170 calls)
     cdiaghg:para :      0.15s CPU      0.18s WALL (     340 calls)

     Called by h_psi:
     h_psi:pot    :      0.90s CPU      0.93s WALL (     180 calls)
     h_psi:calbec :      0.01s CPU      0.02s WALL (     180 calls)
     vloc_psi     :      0.86s CPU      0.90s WALL (     180 calls)
     add_vuspsi   :      0.03s CPU      0.01s WALL (     180 calls)

     General routines
     calbec       :      0.01s CPU      0.02s WALL (     180 calls)
     fft          :      0.00s CPU      0.00s WALL (      10 calls)
     fftw         :      0.80s CPU      0.84s WALL (   13136 calls)
     davcio       :      0.02s CPU      0.01s WALL (      20 calls)
 
     Parallel routines
     fft_scatter  :      0.28s CPU      0.28s WALL (   13146 calls)
 
     PWSCF        :     6.79s CPU        15.39s WALL

 
   This run was terminated on:  13:54: 4  21Jan2020            

=------------------------------------------------------------------------------=
   JOB DONE.
=------------------------------------------------------------------------------=
Application 16051197 resources: utime ~2652s, stime ~63s, Rss ~35144, inblocks ~0, outblocks ~1948352
